TITLE     = "ANALYZED MODEL"
VARIABLES = "X", "Y", "Z", "C"
ZONE T="STEP 0 Incr 0"
F = POINT
10.992931 1.135362 -2.187860 1.000000
11.038368 1.388685 -2.320172 1.000000
10.393653 1.378364 -2.101120 1.000000
16.607620 -0.697175 -2.666628 0.000000
16.627129 -0.731899 -2.636229 0.000000
15.958077 -0.655893 -2.514518 0.000000
12.420982 0.562265 -2.370220 1.000000
12.426874 0.378890 -2.255280 1.000000
12.426359 0.432470 -2.286182 1.000000
13.798274 -0.013830 -2.403423 1.000000
13.830308 0.371931 -2.692078 1.000000
12.459973 1.486997 -2.817939 1.000000
13.880336 1.434554 -3.235488 1.000000
15.283113 1.375467 -3.606991 0.000000
15.286481 1.442377 -3.640563 0.000000
14.920188 1.498838 -3.550194 0.000000
16.655300 0.613521 -3.624138 0.000000
16.679710 1.482378 -4.026411 0.000000
15.208321 -0.474958 -2.445205 0.000000
15.250893 0.434286 -3.141416 0.000000
16.647100 0.508037 -3.569370 0.000000
7.907170 -0.777021 0.106442 1.000000
7.983447 -0.689720 -0.021454 1.000000
6.638186 -0.593678 0.306527 1.000000
9.309889 -1.030325 0.023865 1.000000
9.371724 -0.581159 -0.532764 1.000000
10.759033 -1.330971 0.043533 1.000000
10.814989 -0.543098 -1.002011 1.000000
8.035833 0.409737 -0.910620 1.000000
8.054452 0.325488 -0.871378 1.000000
7.705761 0.370014 -0.791245 1.000000
6.710175 0.884621 -0.712465 1.000000
6.738873 1.213352 -0.858654 1.000000
6.150062 1.166512 -0.632359 1.000000
8.134195 1.344737 -1.344466 1.000000
6.333302 -0.515003 0.013983 1.000000
6.578085 -0.693596 0.422728 1.000000
6.467842 -0.416891 -0.234528 1.000000
6.625568 0.451403 -0.502355 1.000000
6.600018 -0.004876 -0.748646 1.000000
6.541285 1.088775 -1.102199 1.000000
6.353148 0.501171 -0.621733 1.000000
6.178033 0.218055 -0.356276 1.000000
9.438160 -0.117642 -0.954738 1.000000
9.525889 0.327684 -1.324393 1.000000
10.838928 -0.547904 -1.003025 1.000000
10.900235 0.539207 -1.855151 1.000000
9.630620 1.277779 -1.805064 1.000000
6.583159 -1.087348 0.183278 1.000000
6.582820 -1.257742 0.440554 1.000000
6.484209 -1.213088 1.306422 1.000000
6.601158 -0.538219 0.259094 1.000000
6.762306 -1.913621 0.819678 1.000000
7.845385 -1.402305 1.209072 1.000000
7.798227 -1.675424 2.152726 1.000000
7.819608 -1.552394 1.700952 1.000000
6.558516 -1.510954 2.243842 1.000000
6.449920 -1.897389 2.135433 1.000000
6.439342 -1.516517 2.348207 1.000000
6.638453 -2.074451 1.893041 1.000000
10.702849 -1.756714 0.995247 1.000000
10.731384 -1.646831 0.714200 1.000000
9.394987 -1.586207 1.072645 1.000000
9.265781 -1.606651 1.178047 1.000000
9.210831 -1.852091 2.173772 1.000000
9.250864 -1.556055 1.049284 1.000000
10.659345 -2.007378 2.121233 1.000000
6.563272 -0.660322 -0.208805 1.000000
12.291727 -0.740487 -1.248333 1.000000
12.353293 -0.695725 -1.316789 1.000000
11.415698 -0.591576 -1.127498 1.000000
13.694316 -1.040287 -1.331583 1.000000
13.746404 -0.597620 -1.854433 1.000000
13.640744 -1.713531 -0.230267 1.000000
13.652376 -1.730535 -0.194564 1.000000
13.286463 -1.685590 -0.155162 1.000000
12.233791 -1.576912 -0.000788 1.000000
15.142133 -1.378409 -1.339262 0.000000
15.198474 -0.573327 -2.347106 0.000000
16.573345 -1.664469 -1.372642 0.000000
15.065270 -1.949936 -0.266942 0.000000
15.106820 -1.722696 -0.727861 0.000000
16.498437 -2.168553 -0.300849 0.000000
16.548302 -1.713528 -1.262206 0.000000
12.127373 -1.950499 0.972350 1.000000
12.167791 -1.640899 0.170065 1.000000
13.587121 -2.143882 0.962106 1.000000
12.082241 -2.146418 2.005792 1.000000
13.522877 -2.289967 1.988711 1.000000
15.010709 -2.294315 0.837224 0.000000
16.447616 -2.455894 0.776692 0.000000
14.966261 -2.427840 1.954805 0.000000
16.415724 -2.569444 1.930298 0.000000
21.010977 1.270567 -5.010594 0.000000
21.006639 1.382631 -5.057598 0.000000
20.528106 1.452262 -4.958423 0.000000
22.425584 0.450129 -5.024471 0.000000
22.413834 1.388620 -5.391576 0.000000
18.054895 -1.076075 -2.692880 0.000000
18.093900 -0.734899 -3.061064 0.000000
19.482711 -1.433925 -2.699087 0.000000
19.506773 -0.679004 -3.513827 0.000000
22.402654 -1.028092 -4.022602 0.000000
22.417542 -0.864742 -4.186141 0.000000
21.015601 -0.715862 -3.907730 0.000000
22.362120 -1.961475 -2.898656 0.000000
22.368693 -1.888640 -2.998120 0.000000
21.538037 -1.844855 -2.799852 0.000000
20.925332 -1.793087 -2.677425 0.000000
20.971033 -0.659502 -3.945451 0.000000
18.118371 0.201941 -3.768590 0.000000
18.129103 0.349269 -3.872235 0.000000
17.344140 0.406150 -3.682152 0.000000
19.530657 -0.336030 -3.784632 0.000000
19.543618 0.318254 -4.232150 0.000000
18.126761 1.453129 -4.379809 0.000000
19.553017 1.475380 -4.728322 0.000000
20.974104 -0.817999 -3.812179 0.000000
20.998953 0.371558 -4.620905 0.000000
22.430014 0.376568 -4.992920 0.000000
26.749485 -0.892184 -5.328743 0.000000
26.752661 -0.939615 -5.298889 0.000000
26.296800 -0.856076 -5.237519 0.000000
28.176088 -1.313051 -5.362633 0.000000
28.169609 -0.985235 -5.622689 0.000000
23.890246 -0.031396 -5.146157 0.000000
23.890076 0.219325 -5.287227 0.000000
22.896311 0.295619 -5.066651 0.000000
25.304450 -0.576715 -5.176910 0.000000
25.293214 0.228763 -5.632807 0.000000
23.852359 1.331893 -5.692132 0.000000
25.282845 1.218171 -5.967039 0.000000
28.161304 0.653519 -6.383311 0.000000
28.160740 1.181546 -6.533323 0.000000
27.098461 1.246675 -6.334716 0.000000
26.734674 0.152281 -5.920796 0.000000
28.161753 0.176612 -6.230844 0.000000
26.717964 1.330120 -6.275469 0.000000
23.834458 -1.426342 -4.027413 0.000000
23.875819 -0.816822 -4.603525 0.000000
25.257494 -1.788737 -4.040734 0.000000
25.281554 -0.721996 -5.069380 0.000000
23.789467 -2.253189 -2.926177 0.000000
23.820289 -1.888224 -3.460270 0.000000
25.231131 -2.520341 -2.977530 0.000000
25.261475 -1.886834 -3.914917 0.000000
26.727644 -2.029681 -4.195817 0.000000
26.743695 -2.024502 -4.203483 0.000000
26.156156 -1.950158 -4.109633 0.000000
28.139187 -2.339580 -4.238617 0.000000
28.158962 -1.977278 -4.675943 0.000000
26.699402 -2.818592 -2.963359 0.000000
28.120545 -3.079775 -2.997055 0.000000
20.850576 -2.980501 0.673181 0.000000
20.844387 -2.956767 0.550362 0.000000
20.565443 -2.938489 0.686311 0.000000
22.288825 -3.205008 0.710354 0.000000
22.280283 -2.966344 -0.432996 0.000000
20.845269 -3.098823 1.913470 0.000000
19.580549 -2.916457 1.913137 0.000000
22.293695 -3.318213 1.907315 0.000000
23.761652 -3.173303 -0.565191 0.000000
23.761533 -3.015464 -1.112298 0.000000
22.573500 -2.983057 -0.546250 0.000000
25.201910 -3.422939 -0.537696 0.000000
25.201654 -3.028598 -1.812935 0.000000
26.671057 -3.283877 -1.853685 0.000000
26.681442 -3.085619 -2.353463 0.000000
25.287525 -3.053094 -1.785486 0.000000
28.105497 -3.552549 -1.833113 0.000000
28.118122 -3.095515 -2.957833 0.000000
26.646917 -3.647888 -0.595691 0.000000
28.076286 -3.862946 -0.639930 0.000000
23.749810 -3.433913 0.708163 0.000000
25.183553 -3.647095 0.662283 0.000000
23.729909 -3.529350 1.896610 0.000000
25.162405 -3.731134 1.885178 0.000000
26.614565 -3.849357 0.631707 0.000000
28.043663 -4.041426 0.604547 0.000000
26.596613 -3.923475 1.876354 0.000000
28.030657 -4.107332 1.872269 0.000000
18.014673 -1.840816 -1.567582 0.000000
18.020983 -1.793198 -1.642077 0.000000
17.390821 -1.756476 -1.482695 0.000000
19.433097 -2.105102 -1.600241 0.000000
19.469440 -1.785322 -2.156387 0.000000
17.957011 -2.364668 -0.369010 0.000000
19.383080 -2.529275 -0.512820 0.000000
20.870895 -2.356728 -1.633859 0.000000
20.920904 -1.781253 -2.672511 0.000000
22.320694 -2.566034 -1.730360 0.000000
20.837773 -2.733101 -0.500660 0.000000
22.286158 -2.952465 -0.496124 0.000000
17.891630 -2.614409 0.728150 0.000000
19.346221 -2.774774 0.663476 0.000000
17.877462 -2.718087 1.916657 0.000000
19.342808 -2.886677 1.912750 0.000000
23.768603 -2.801423 -1.737650 0.000000
25.211876 -3.057757 -1.739827 0.000000
39.350300 -2.390010 -9.714000 0.000000
39.350300 -2.006020 -9.915030 0.000000
38.410300 -2.006020 -9.714000 0.000000
36.458100 -0.963142 -9.714000 0.000000
36.458100 -0.559886 -9.845100 0.000000
35.843300 -0.559886 -9.714000 0.000000
35.011900 0.279529 -9.714000 0.000000
35.011900 0.886253 -9.794160 0.000000
34.640500 0.886253 -9.714000 0.000000
36.458100 0.886253 -10.079900 0.000000
37.904200 -1.757220 -9.714000 0.000000
37.904200 -0.559886 -10.137800 0.000000
39.350300 -0.559886 -10.411900 0.000000
37.904200 0.886253 -10.333900 0.000000
39.350300 0.886253 -10.557600 0.000000
49.473300 -5.171210 -9.714000 0.000000
49.473300 -4.898300 -9.980080 0.000000
48.126200 -4.898300 -9.714000 0.000000
50.919500 -5.438770 -9.714000 0.000000
50.919500 -4.898300 -10.244300 0.000000
40.796500 -2.948480 -9.714000 0.000000
40.796500 -2.006020 -10.223900 0.000000
42.242600 -3.437210 -9.714000 0.000000
42.242600 -2.006020 -10.510300 0.000000
43.688800 -3.877720 -9.714000 0.000000
43.688800 -3.452160 -10.018900 0.000000
42.291400 -3.452160 -9.714000 0.000000
45.134900 -4.249450 -9.714000 0.000000
45.134900 -3.452160 -10.294900 0.000000
43.688800 -2.006020 -10.771100 0.000000
45.134900 -2.006020 -11.009600 0.000000
40.796500 -0.559886 -10.666200 0.000000
42.242600 -0.559886 -10.908800 0.000000
40.796500 0.886253 -10.764200 0.000000
42.242600 0.886253 -10.975800 0.000000
45.134900 -1.543380 -11.160100 0.000000
45.134900 -0.559886 -11.367100 0.000000
43.778000 -0.559886 -11.160100 0.000000
43.688800 -0.372548 -11.160100 0.000000
43.688800 0.886253 -11.188700 0.000000
43.503900 0.886253 -11.160100 0.000000
45.134900 0.886253 -11.380500 0.000000
43.688800 -0.559886 -11.144700 0.000000
46.581000 -2.209600 -11.160100 0.000000
46.581000 -2.006020 -11.235100 0.000000
46.119800 -2.006020 -11.160100 0.000000
48.027200 -2.737720 -11.160100 0.000000
48.027200 -2.006020 -11.448600 0.000000
46.581000 -4.571170 -9.714000 0.000000
46.581000 -3.452160 -10.547800 0.000000
48.027200 -4.875860 -9.714000 0.000000
48.027200 -3.452160 -10.786800 0.000000
50.919500 -3.591470 -11.160100 0.000000
50.919500 -3.452160 -11.242300 0.000000
50.346600 -3.452160 -11.160100 0.000000
49.473300 -3.192050 -11.160100 0.000000
49.473300 -2.006020 -11.647700 0.000000
50.919500 -2.006020 -11.833700 0.000000
49.473300 -3.452160 -11.018800 0.000000
46.581000 -0.559886 -11.566300 0.000000
48.027200 -0.559886 -11.743800 0.000000
46.581000 0.886253 -11.541200 0.000000
48.027200 0.886253 -11.679200 0.000000
49.473300 -0.559886 -11.904500 0.000000
50.919500 -0.559886 -12.051400 0.000000
49.473300 0.886253 -11.806800 0.000000
50.919500 0.886253 -11.927100 0.000000
29.227400 -5.117690 -3.929450 0.000000
29.227400 -4.898300 -4.353560 0.000000
28.564147 -3.138872 -3.049195 0.000000
30.673500 -5.411620 -3.929450 0.000000
30.673500 -4.898300 -4.928790 0.000000
32.119700 -4.955760 -5.375590 0.000000
32.119700 -4.898300 -5.466100 0.000000
31.876000 -4.898300 -5.375590 0.000000
33.565800 -5.268320 -5.375590 0.000000
33.565800 -4.898300 -5.973270 0.000000
32.119700 -5.675340 -3.929450 0.000000
33.565800 -5.907380 -3.929450 0.000000
36.458100 -4.951000 -6.821720 0.000000
36.458100 -4.898300 -6.890340 0.000000
36.213900 -4.898300 -6.821720 0.000000
37.904200 -5.252130 -6.821720 0.000000
37.904200 -4.898300 -7.300110 0.000000
39.350300 -5.519640 -6.821720 0.000000
39.350300 -4.898300 -7.678820 0.000000
35.011900 -5.545240 -5.375590 0.000000
35.011900 -4.898300 -6.443760 0.000000
36.458100 -5.790820 -5.375590 0.000000
35.011900 -6.112970 -3.929450 0.000000
36.458100 -6.305450 -3.929450 0.000000
37.904200 -6.013360 -5.375590 0.000000
39.350300 -6.224740 -5.375590 0.000000
37.904200 -6.499780 -3.929450 0.000000
37.904200 -6.344440 -4.450760 0.000000
36.774300 -6.344440 -3.929450 0.000000
39.350300 -6.695790 -3.929450 0.000000
39.350300 -6.344440 -5.050870 0.000000
30.673500 -3.466010 -6.821720 0.000000
30.673500 -3.452160 -6.835090 0.000000
30.626200 -3.452160 -6.821720 0.000000
29.227400 -3.042910 -6.821720 0.000000
29.227400 -2.006020 -7.639130 0.000000
30.673500 -2.006020 -7.979230 0.000000
32.119700 -2.086480 -8.267860 0.000000
32.119700 -2.006020 -8.319010 0.000000
31.911400 -2.006020 -8.267860 0.000000
33.565800 -2.624440 -8.267860 0.000000
33.565800 -2.006020 -8.665390 0.000000
32.119700 -3.865030 -6.821720 0.000000
32.119700 -3.452160 -7.245330 0.000000
33.565800 -4.249190 -6.821720 0.000000
33.565800 -3.452160 -7.632610 0.000000
29.227400 -0.776649 -8.267860 0.000000
29.227400 -0.559886 -8.358970 0.000000
28.825900 -0.559886 -8.267860 0.000000
30.673500 -1.471900 -8.267860 0.000000
30.673500 -0.559886 -8.672450 0.000000
29.227400 0.886253 -8.754660 0.000000
30.673500 0.886253 -9.017440 0.000000
32.119700 -0.559886 -8.971130 0.000000
33.565800 -0.559886 -9.262540 0.000000
32.119700 0.886253 -9.263700 0.000000
33.565800 0.886253 -9.510680 0.000000
29.227400 -4.264620 -5.375590 0.000000
29.227400 -3.452160 -6.401920 0.000000
30.673500 -4.618120 -5.375590 0.000000
36.458100 -3.557170 -8.267860 0.000000
36.458100 -3.452160 -8.359550 0.000000
36.083700 -3.452160 -8.267860 0.000000
35.011900 -3.115510 -8.267860 0.000000
35.011900 -2.006020 -8.992250 0.000000
36.458100 -2.006020 -9.281510 0.000000
35.011900 -4.614470 -6.821720 0.000000
35.011900 -3.452160 -8.003350 0.000000
37.904200 -3.957080 -8.267860 0.000000
37.904200 -3.452160 -8.703430 0.000000
39.350300 -4.330110 -8.267860 0.000000
39.350300 -3.452160 -9.013670 0.000000
37.904200 -2.006020 -9.597990 0.000000
35.011900 -0.559886 -9.545070 0.000000
29.227400 -5.670200 -2.483310 0.000000
30.673500 -5.905990 -2.483310 0.000000
29.227400 -6.008380 -1.037170 0.000000
30.673500 -6.197120 -1.037170 0.000000
32.119700 -6.111990 -2.483310 0.000000
33.565800 -6.294910 -2.483310 0.000000
32.119700 -6.375950 -1.037170 0.000000
32.119700 -6.344440 -1.261560 0.000000
31.877800 -6.344440 -1.037170 0.000000
33.565800 -6.559630 -1.037170 0.000000
33.565800 -6.344440 -2.255700 0.000000
30.673500 -6.371360 0.408971 0.000000
30.673500 -6.344440 0.134345 0.000000
30.429600 -6.344440 0.408971 0.000000
29.227400 -6.197770 0.408971 0.000000
30.673500 -6.449550 1.855110 0.000000
29.812700 -6.344440 1.855110 0.000000
29.227400 -6.268100 1.855110 0.000000
32.119700 -6.555690 0.408971 0.000000
33.565800 -6.750730 0.408971 0.000000
32.119700 -6.649170 1.855110 0.000000
33.565800 -6.854310 1.855110 0.000000
35.011900 -6.477130 -2.483310 0.000000
35.011900 -6.344440 -3.063380 0.000000
33.982700 -6.344440 -2.483310 0.000000
36.458100 -6.662950 -2.483310 0.000000
36.458100 -6.344440 -3.787560 0.000000
35.011900 -6.746270 -1.037170 0.000000
36.458100 -6.927870 -1.037170 0.000000
37.904200 -6.848620 -2.483310 0.000000
39.350300 -7.026410 -2.483310 0.000000
37.904200 -7.096140 -1.037170 0.000000
39.350300 -7.248460 -1.037170 0.000000
35.011900 -6.938740 0.408971 0.000000
36.458100 -7.111570 0.408971 0.000000
35.011900 -7.044670 1.855110 0.000000
36.458100 -7.216290 1.855110 0.000000
37.904200 -7.266650 0.408971 0.000000
39.350300 -7.404460 0.408971 0.000000
37.904200 -7.365940 1.855110 0.000000
39.350300 -7.497170 1.855110 0.000000
42.242600 -5.021460 -8.267860 0.000000
42.242600 -4.898300 -8.412280 0.000000
41.673600 -4.898300 -8.267860 0.000000
40.796500 -5.771210 -6.821720 0.000000
40.796500 -4.898300 -8.042050 0.000000
42.242600 -6.005670 -6.821720 0.000000
43.688800 -5.316680 -8.267860 0.000000
43.688800 -4.898300 -8.759040 0.000000
45.134900 -5.578710 -8.267860 0.000000
45.134900 -4.898300 -9.086660 0.000000
45.134900 -6.443740 -6.821720 0.000000
45.134900 -6.344440 -7.015580 0.000000
44.434600 -6.344440 -6.821720 0.000000
43.688800 -6.226230 -6.821720 0.000000
40.796500 -6.434320 -5.375590 0.000000
40.796500 -6.344440 -5.597930 0.000000
40.205200 -6.344440 -5.375590 0.000000
42.242600 -6.638270 -5.375590 0.000000
42.242600 -6.344440 -6.098520 0.000000
40.796500 -6.884970 -3.929450 0.000000
42.242600 -7.063800 -3.929450 0.000000
43.688800 -6.832750 -5.375590 0.000000
43.688800 -6.344440 -6.571010 0.000000
45.134900 -7.020810 -5.375590 0.000000
43.688800 -7.230300 -3.929450 0.000000
45.134900 -7.386390 -3.929450 0.000000
46.581000 -5.823010 -8.267860 0.000000
46.581000 -4.898300 -9.392240 0.000000
48.027200 -6.054500 -8.267860 0.000000
48.027200 -4.898300 -9.692180 0.000000
46.581000 -6.653940 -6.821720 0.000000
46.581000 -6.344440 -7.420010 0.000000
48.027200 -6.852960 -6.821720 0.000000
48.027200 -6.344440 -7.797060 0.000000
50.919500 -6.496330 -8.267860 0.000000
50.919500 -6.344440 -8.499080 0.000000
49.877000 -6.344440 -8.267860 0.000000
49.473300 -6.279670 -8.267860 0.000000
49.473300 -7.044640 -6.821720 0.000000
49.473300 -6.344440 -8.162940 0.000000
50.919500 -7.228060 -6.821720 0.000000
49.473300 -7.872510 -3.929450 0.000000
49.473300 -7.790580 -4.315050 0.000000
48.849300 -7.790580 -3.929450 0.000000
50.919500 -8.059140 -3.929450 0.000000
50.919500 -7.790580 -5.076400 0.000000
46.581000 -7.199640 -5.375590 0.000000
48.027200 -7.372840 -5.375590 0.000000
46.581000 -7.537610 -3.929450 0.000000
48.027200 -7.694970 -3.929450 0.000000
49.473300 -7.539630 -5.375590 0.000000
50.919500 -7.712820 -5.375590 0.000000
40.796500 -4.688140 -8.267860 0.000000
40.796500 -3.452160 -9.360270 0.000000
42.242600 -3.452160 -9.702940 0.000000
40.796500 -7.189010 -2.483310 0.000000
42.242600 -7.339550 -2.483310 0.000000
40.796500 -7.389910 -1.037170 0.000000
42.242600 -7.524730 -1.037170 0.000000
43.688800 -7.482290 -2.483310 0.000000
45.134900 -7.621120 -2.483310 0.000000
43.688800 -7.654280 -1.037170 0.000000
45.134900 -7.786690 -1.037170 0.000000
45.134900 -7.920860 0.408971 0.000000
45.134900 -7.790580 -0.999302 0.000000
43.844100 -7.790580 0.408971 0.000000
43.688800 -7.864990 1.855110 0.000000
43.688800 -7.790580 0.602145 0.000000
42.926300 -7.790580 1.855110 0.000000
45.134900 -8.014140 1.855110 0.000000
40.796500 -7.531900 0.408971 0.000000
42.242600 -7.655040 0.408971 0.000000
40.796500 -7.617880 1.855110 0.000000
42.242600 -7.734840 1.855110 0.000000
43.688800 -7.777790 0.408971 0.000000
48.027200 -7.936800 -2.483310 0.000000
48.027200 -7.790580 -3.407110 0.000000
46.819800 -7.790580 -2.483310 0.000000
46.581000 -7.944770 -1.037170 0.000000
46.581000 -7.790580 -2.294850 0.000000
45.172100 -7.790580 -1.037170 0.000000
48.027200 -8.122240 -1.037170 0.000000
49.473300 -8.123240 -2.483310 0.000000
50.919500 -8.302330 -2.483310 0.000000
49.473300 -8.298770 -1.037170 0.000000
50.919500 -8.453770 -1.037170 0.000000
46.581000 -7.765110 -2.483310 0.000000
46.581000 -8.084370 0.408971 0.000000
48.027200 -8.254540 0.408971 0.000000
46.581000 -8.176490 1.855110 0.000000
48.027200 -8.332370 1.855110 0.000000
49.473300 -8.411040 0.408971 0.000000
50.919500 -8.543730 0.408971 0.000000
49.473300 -8.470790 1.855110 0.000000
50.919500 -8.586750 1.855110 0.000000
52.365600 -5.681250 -9.714000 0.000000
52.365600 -4.898300 -10.487800 0.000000
53.811700 -5.903720 -9.714000 0.000000
53.811700 -4.898300 -10.715100 0.000000
55.257900 -6.104640 -9.714000 0.000000
55.257900 -4.898300 -10.926100 0.000000
56.704000 -6.275300 -9.714000 0.000000
56.704000 -4.898300 -11.108300 0.000000
58.150200 -5.020430 -11.160100 0.000000
58.150200 -4.898300 -11.258000 0.000000
57.204700 -4.898300 -11.160100 0.000000
59.596300 -5.170260 -11.160100 0.000000
59.596300 -4.898300 -11.378200 0.000000
58.150200 -6.416860 -9.714000 0.000000
58.150200 -6.344440 -9.805750 0.000000
57.412100 -6.344440 -9.714000 0.000000
59.596300 -6.531860 -9.714000 0.000000
59.596300 -6.344440 -9.952050 0.000000
61.042400 -5.294140 -11.160100 0.000000
61.042400 -4.898300 -11.478300 0.000000
62.488600 -5.396830 -11.160100 0.000000
62.488600 -4.898300 -11.562200 0.000000
61.042400 -6.625970 -9.714000 0.000000
61.042400 -6.344440 -10.072200 0.000000
62.488600 -6.701170 -9.714000 0.000000
62.488600 -6.344440 -10.169400 0.000000
52.365600 -3.947940 -11.160100 0.000000
52.365600 -3.452160 -11.452500 0.000000
53.811700 -4.277620 -11.160100 0.000000
53.811700 -3.452160 -11.652000 0.000000
52.365600 -2.006020 -12.007100 0.000000
53.811700 -2.006020 -12.169400 0.000000
55.257900 -4.576690 -11.160100 0.000000
55.257900 -3.452160 -11.836200 0.000000
56.704000 -4.828170 -11.160100 0.000000
56.704000 -3.452160 -11.988600 0.000000
55.257900 -2.006020 -12.315800 0.000000
56.704000 -2.006020 -12.439200 0.000000
52.365600 -0.559886 -12.189200 0.000000
53.811700 -0.559886 -12.317700 0.000000
52.365600 0.886253 -12.041400 0.000000
53.811700 0.886253 -12.148400 0.000000
55.257900 -0.559886 -12.435200 0.000000
56.704000 -0.559886 -12.542000 0.000000
55.257900 0.886253 -12.247200 0.000000
56.704000 0.886253 -12.335400 0.000000
59.596300 -2.186970 -12.606300 0.000000
59.596300 -2.006020 -12.643600 0.000000
59.080600 -2.006020 -12.606300 0.000000
61.042400 -2.545460 -12.606300 0.000000
61.042400 -2.006020 -12.730400 0.000000
62.488600 -2.803920 -12.606300 0.000000
62.488600 -2.006020 -12.805400 0.000000
58.150200 -1.522190 -12.606300 0.000000
58.150200 -0.559886 -12.639600 0.000000
57.681800 -0.559886 -12.606300 0.000000
59.596300 -0.559886 -12.727400 0.000000
58.150200 -0.125356 -12.606300 0.000000
59.596300 0.346450 -12.606300 0.000000
61.042400 -0.559886 -12.806200 0.000000
62.488600 -0.559886 -12.876500 0.000000
61.042400 0.614021 -12.606300 0.000000
62.488600 0.812800 -12.606300 0.000000
58.150200 -3.452160 -12.109300 0.000000
59.596300 -3.452160 -12.201500 0.000000
58.150200 -2.006020 -12.545400 0.000000
61.042400 -3.452160 -12.290500 0.000000
62.488600 -3.452160 -12.366600 0.000000
58.150200 0.886253 -12.406900 0.000000
59.596300 0.886253 -12.470500 0.000000
61.042400 0.886253 -12.528600 0.000000
62.488600 0.886253 -12.583500 0.000000
63.934700 -5.476210 -11.160100 0.000000
63.934700 -4.898300 -11.630600 0.000000
65.380900 -5.531840 -11.160100 0.000000
65.380900 -4.898300 -11.684300 0.000000
63.934700 -6.757030 -9.714000 0.000000
63.934700 -6.344440 -10.243400 0.000000
65.380900 -6.792950 -9.714000 0.000000
65.380900 -6.344440 -10.293400 0.000000
66.827000 -5.569790 -11.160100 0.000000
66.827000 -4.898300 -11.725200 0.000000
68.273100 -5.593840 -11.160100 0.000000
68.273100 -4.898300 -11.754600 0.000000
66.827000 -6.811320 -9.714000 0.000000
66.827000 -6.344440 -10.323000 0.000000
68.273100 -6.816140 -9.714000 0.000000
68.273100 -6.344440 -10.336600 0.000000
69.719300 -5.605600 -11.160100 0.000000
69.719300 -4.898300 -11.773700 0.000000
71.165400 -5.606830 -11.160100 0.000000
71.165400 -4.898300 -11.783200 0.000000
69.719300 -6.810260 -9.714000 0.000000
69.719300 -6.344440 -10.336700 0.000000
71.165400 -6.796210 -9.714000 0.000000
71.165400 -6.344440 -10.325500 0.000000
72.611500 -5.597850 -11.160100 0.000000
72.611500 -4.898300 -11.782400 0.000000
74.057700 -5.577640 -11.160100 0.000000
74.057700 -4.898300 -11.769300 0.000000
72.611500 -6.776020 -9.714000 0.000000
72.611500 -6.344440 -10.304300 0.000000
74.057700 -6.749970 -9.714000 0.000000
74.057700 -6.344440 -10.272800 0.000000
63.934700 -3.003680 -12.606300 0.000000
63.934700 -2.006020 -12.868100 0.000000
65.380900 -3.167000 -12.606300 0.000000
65.380900 -2.006020 -12.920500 0.000000
66.827000 -3.295040 -12.606300 0.000000
66.827000 -2.006020 -12.965500 0.000000
68.273100 -3.390060 -12.606300 0.000000
68.273100 -2.006020 -13.003300 0.000000
63.934700 -0.559886 -12.934700 0.000000
65.380900 -0.559886 -12.981600 0.000000
63.202100 0.886253 -12.606300 0.000000
63.934700 0.886253 -12.634000 0.000000
65.380900 0.886253 -12.675900 0.000000
66.827000 -0.559886 -13.021000 0.000000
68.273100 -0.559886 -13.054400 0.000000
66.827000 0.886253 -12.708700 0.000000
68.273100 0.886253 -12.734300 0.000000
63.934700 -3.452160 -12.433500 0.000000
65.380900 -3.452160 -12.492400 0.000000
66.827000 -3.452160 -12.541400 0.000000
68.273100 -3.452160 -12.579900 0.000000
69.719300 -3.457520 -12.606300 0.000000
69.719300 -3.452160 -12.608700 0.000000
69.594700 -3.452160 -12.606300 0.000000
71.165400 -3.500420 -12.606300 0.000000
71.165400 -3.452160 -12.628500 0.000000
69.719300 -2.006020 -13.032700 0.000000
71.165400 -2.006020 -13.052600 0.000000
72.611500 -3.519660 -12.606300 0.000000
72.611500 -3.452160 -12.637800 0.000000
74.057700 -3.509350 -12.606300 0.000000
74.057700 -3.452160 -12.633100 0.000000
72.611500 -2.006020 -13.061600 0.000000
74.057700 -2.006020 -13.057500 0.000000
69.719300 -0.559886 -13.080200 0.000000
71.165400 -0.559886 -13.095500 0.000000
69.719300 0.886253 -12.751400 0.000000
71.165400 0.886253 -12.756700 0.000000
72.611500 -0.559886 -13.097700 0.000000
74.057700 -0.559886 -13.085500 0.000000
72.611500 0.886253 -12.746900 0.000000
74.057700 0.886253 -12.720300 0.000000
56.704000 -7.862750 -6.821720 0.000000
56.704000 -7.790580 -7.000520 0.000000
55.943400 -7.790580 -6.821720 0.000000
52.365600 -6.697950 -8.267860 0.000000
52.365600 -6.344440 -8.813780 0.000000
53.811700 -6.887190 -8.267860 0.000000
53.811700 -6.344440 -9.112740 0.000000
52.365600 -7.403800 -6.821720 0.000000
53.811700 -7.571770 -6.821720 0.000000
55.257900 -7.062120 -8.267860 0.000000
55.257900 -6.344440 -9.385990 0.000000
56.704000 -7.195570 -8.267860 0.000000
56.704000 -6.344440 -9.619250 0.000000
55.257900 -7.725900 -6.821720 0.000000
52.365600 -7.887520 -5.375590 0.000000
52.365600 -7.790580 -5.703470 0.000000
51.570300 -7.790580 -5.375590 0.000000
53.811700 -8.055930 -5.375590 0.000000
53.811700 -7.790580 -6.223250 0.000000
52.365600 -8.233810 -3.929450 0.000000
53.811700 -8.384660 -3.929450 0.000000
55.257900 -8.200640 -5.375590 0.000000
55.257900 -7.790580 -6.652210 0.000000
56.704000 -8.317420 -5.375590 0.000000
55.257900 -8.504260 -3.929450 0.000000
56.704000 -8.593570 -3.929450 0.000000
58.150200 -7.970660 -6.821720 0.000000
58.150200 -7.790580 -7.268840 0.000000
59.596300 -8.053670 -6.821720 0.000000
59.596300 -7.790580 -7.476800 0.000000
61.042400 -8.119580 -6.821720 0.000000
61.042400 -7.790580 -7.643770 0.000000
62.488600 -8.170590 -6.821720 0.000000
62.488600 -7.790580 -7.774650 0.000000
58.150200 -7.317710 -8.267860 0.000000
59.596300 -7.415050 -8.267860 0.000000
61.042400 -7.494330 -8.267860 0.000000
62.488600 -7.556830 -8.267860 0.000000
58.150200 -8.406500 -5.375590 0.000000
59.596300 -8.474440 -5.375590 0.000000
58.150200 -8.660350 -3.929450 0.000000
59.596300 -8.712590 -3.929450 0.000000
61.042400 -8.527330 -5.375590 0.000000
62.488600 -8.567820 -5.375590 0.000000
61.042400 -8.754180 -3.929450 0.000000
62.488600 -8.786940 -3.929450 0.000000
52.365600 -8.455030 -2.483310 0.000000
53.811700 -8.576670 -2.483310 0.000000
52.365600 -8.581110 -1.037170 0.000000
53.811700 -8.681050 -1.037170 0.000000
55.257900 -8.670720 -2.483310 0.000000
56.704000 -8.741520 -2.483310 0.000000
55.257900 -8.756740 -1.037170 0.000000
56.704000 -8.814180 -1.037170 0.000000
52.365600 -8.650400 0.408971 0.000000
53.811700 -8.733620 0.408971 0.000000
52.365600 -8.680360 1.855110 0.000000
53.811700 -8.755040 1.855110 0.000000
55.257900 -8.797780 0.408971 0.000000
56.704000 -8.848340 0.408971 0.000000
55.257900 -8.814590 1.855110 0.000000
56.704000 -8.863280 1.855110 0.000000
58.150200 -8.795490 -2.483310 0.000000
59.596300 -8.838590 -2.483310 0.000000
58.150200 -8.859810 -1.037170 0.000000
59.596300 -8.897840 -1.037170 0.000000
61.042400 -8.873870 -2.483310 0.000000
62.488600 -8.902660 -2.483310 0.000000
61.042400 -8.929790 -1.037170 0.000000
62.488600 -8.956630 -1.037170 0.000000
58.150200 -8.890210 0.408971 0.000000
59.596300 -8.925930 0.408971 0.000000
58.150200 -8.904690 1.855110 0.000000
59.596300 -8.940280 1.855110 0.000000
61.042400 -8.956100 0.408971 0.000000
62.488600 -8.981800 0.408971 0.000000
61.042400 -8.970140 1.855110 0.000000
62.488600 -8.995650 1.855110 0.000000
63.934700 -8.206970 -6.821720 0.000000
63.934700 -7.790580 -7.868740 0.000000
65.380900 -8.229100 -6.821720 0.000000
65.380900 -7.790580 -7.924940 0.000000
66.827000 -8.238520 -6.821720 0.000000
66.827000 -7.790580 -7.946940 0.000000
68.273100 -8.237280 -6.821720 0.000000
68.273100 -7.790580 -7.941090 0.000000
63.934700 -7.601910 -8.267860 0.000000
65.380900 -7.628920 -8.267860 0.000000
66.827000 -7.639690 -8.267860 0.000000
68.273100 -7.637410 -8.267860 0.000000
63.934700 -8.597440 -5.375590 0.000000
65.380900 -8.617700 -5.375590 0.000000
63.934700 -8.812730 -3.929450 0.000000
65.380900 -8.833590 -3.929450 0.000000
66.827000 -8.630140 -5.375590 0.000000
68.273100 -8.636210 -5.375590 0.000000
66.827000 -8.850950 -3.929450 0.000000
68.273100 -8.865800 -3.929450 0.000000
69.719300 -8.227790 -6.821720 0.000000
69.719300 -7.790580 -7.913400 0.000000
71.165400 -8.213450 -6.821720 0.000000
71.165400 -7.790580 -7.871980 0.000000
72.611500 -8.197110 -6.821720 0.000000
72.611500 -7.790580 -7.824370 0.000000
74.057700 -8.179310 -6.821720 0.000000
74.057700 -7.790580 -7.772330 0.000000
69.719300 -7.624950 -8.267860 0.000000
71.165400 -7.605920 -8.267860 0.000000
72.611500 -7.583530 -8.267860 0.000000
74.057700 -7.558480 -8.267860 0.000000
69.719300 -8.637510 -5.375590 0.000000
71.165400 -8.635470 -5.375590 0.000000
69.719300 -8.878780 -3.929450 0.000000
71.165400 -8.889790 -3.929450 0.000000
72.611500 -8.631300 -5.375590 0.000000
74.057700 -8.625370 -5.375590 0.000000
72.611500 -8.898640 -3.929450 0.000000
74.057700 -8.905110 -3.929450 0.000000
63.934700 -8.927070 -2.483310 0.000000
65.380900 -8.949670 -2.483310 0.000000
63.934700 -8.980830 -1.037170 0.000000
65.380900 -9.005460 -1.037170 0.000000
66.827000 -8.972020 -2.483310 0.000000
68.273100 -8.994540 -2.483310 0.000000
66.827000 -9.032220 -1.037170 0.000000
68.273100 -9.060870 -1.037170 0.000000
63.934700 -9.006070 0.408971 0.000000