TITLE     = "New Centroid"
VARIABLES = "X", "Y", "Z"
ZONE T="Step 0 Incr 0"
F = POINT
 141.745 -0.030 -0.965
 5.573 1.057 6.359
 133.834 0.456 -1.899
 107.228 -5.652 -6.398
 102.237 3.513 5.260
 127.260 1.399 -2.703
 100.094 -6.666 -5.465
 37.868 2.020 13.520
 79.639 -8.372 4.072
 101.994 -6.756 2.942
 91.499 -7.321 -5.687
 134.260 -0.993 1.133
 116.229 0.191 7.179
 108.344 0.707 -8.608
 107.197 2.194 -6.131
 142.136 -1.300 -1.255
 141.239 -2.471 -0.934
 77.617 -8.757 0.859
 74.868 -8.158 3.994
 77.709 -8.879 3.116
 76.453 -8.853 3.883
 37.982 6.363 -6.781
 36.863 4.288 -8.665
 42.810 9.539 2.219
 45.136 10.134 4.025
 45.039 9.238 3.429
 91.854 -6.591 -3.218
 88.739 -7.405 -0.786
 88.583 -8.072 -1.907
 42.773 -6.415 5.980
 41.673 -6.636 6.332
 43.608 -7.277 5.742
 130.097 0.454 -2.768
 132.344 -0.122 -1.669
 131.401 -0.556 -2.711
 133.369 0.807 -3.390
 118.881 1.941 0.187
 118.981 1.771 -1.545
 119.068 2.985 1.039
 99.153 -7.563 -2.800
 99.072 -7.329 -5.316
 98.758 -6.393 -3.574
 79.474 -4.964 12.035
 79.221 -5.858 11.215
 66.327 -8.337 -1.170
 65.031 -7.641 -1.640
 63.507 -8.306 -1.011
 61.722 -2.091 -11.930
 62.122 -0.824 -11.418
 61.373 0.283 -11.943
 135.124 -1.182 2.141
 127.445 -4.415 -3.793
 140.322 -2.593 -0.159
 138.540 -0.752 2.691
 99.917 -3.143 10.498
 8.489 3.707 -2.525
 7.000 4.757 -0.903
 42.811 -1.147 -10.069
 103.542 -0.815 -10.048
 115.875 -1.594 7.265
 119.055 -6.371 -4.164
 130.717 -4.051 -2.940
 139.818 -0.158 -1.942
 8.733 -1.086 5.244
 31.915 1.113 -8.377
 19.952 3.064 -6.318
 82.109 -0.626 12.003
 39.669 0.901 14.836
 54.841 9.064 3.382
 113.248 -0.980 8.705
 8.133 0.247 -2.366
 137.244 -3.057 -1.710
 25.035 4.299 -7.315
 69.364 -8.348 4.504
 26.291 4.979 -7.236
 23.628 4.768 -6.986
 123.385 -1.253 4.807
 88.055 -8.119 0.190
 87.569 -8.784 -1.698
 92.990 4.066 2.788
 71.168 -8.229 6.337
 23.410 5.966 -6.321
 24.875 6.759 -5.848
 26.856 5.591 -5.740
 69.804 -8.295 5.789
 66.723 3.683 11.886
 83.291 -8.308 3.067
 101.472 3.687 -4.052
 132.962 0.214 -4.306
 73.306 -8.228 -3.409
 73.376 -8.775 -1.550
 63.020 -1.202 14.595
 90.894 4.890 7.413
 117.383 -6.406 -2.947
 142.087 -0.793 -2.302
 77.290 -8.437 1.865
 69.470 -8.413 1.080
 67.108 -8.353 1.054
 5.671 2.857 4.560
 38.413 -6.499 4.688
 41.597 -6.545 -1.917
 112.684 3.429 0.184
 86.702 -8.319 2.725
 37.442 -6.494 3.626
 54.002 7.904 5.051
 134.531 -1.990 2.870
 128.148 -4.335 0.444
 138.236 1.307 2.095
 75.551 -6.438 7.130
 77.532 -6.348 7.074
 76.562 -6.386 6.197
 76.522 -6.400 8.006
 74.482 -5.349 6.997
 78.309 -5.292 6.953
 76.112 -7.373 4.616
 74.785 -7.539 7.275
 74.894 -8.263 6.296
 73.715 -6.450 7.141
 74.954 -7.910 8.503
 78.520 -7.402 7.170
 78.471 -8.148 6.193
 78.589 -7.782 8.383
 79.296 -6.346 7.050
 77.117 -8.275 5.591
 76.332 -3.439 5.063
 76.442 -5.298 5.114
 75.432 -4.399 5.097
 77.343 -4.337 5.080
 76.332 -2.489 4.112
 76.478 -6.186 4.172
 74.482 -4.399 6.047
 76.196 -7.577 5.692
 72.523 -7.320 8.890
 70.060 -7.774 9.328
 73.692 -7.698 9.201
 72.715 -6.439 8.057
 68.461 -7.667 1.177
 72.859 -6.799 2.021
 72.218 -6.477 4.616
 73.858 -6.810 3.006
 71.957 -7.265 2.907
 72.617 -5.592 1.200
 72.559 -5.285 5.218
 74.659 -8.738 1.567
 70.070 -7.648 3.481
 72.840 -8.861 0.788
 72.865 -7.663 1.067
 71.945 -8.132 1.103
 73.761 -8.392 0.752
 72.624 -6.456 0.246
 72.957 -7.275 3.891
 73.483 -8.371 5.561
 71.218 -6.467 3.632
 73.541 -8.463 4.335
 72.401 -7.588 5.712
 72.743 -6.386 6.313
 74.432 -3.439 3.163
 74.567 -5.603 3.135
 74.517 -4.642 2.150
 74.482 -4.399 4.147
 75.382 -2.489 3.163
 75.553 -6.491 3.142
 73.567 -4.642 1.200
 76.010 -7.957 1.651
 70.020 -7.762 -0.006
 71.107 -7.455 -0.005
 70.247 -8.459 -0.847
 69.592 -8.381 -2.148
 71.466 -6.259 -0.454
 83.620 -8.697 -1.902
 85.012 -8.768 0.153
 83.687 -8.779 -0.525
 85.069 -8.055 0.885
 77.995 -7.028 -7.931
 79.039 -6.137 -8.157
 74.326 -7.001 -8.086
 73.469 -6.107 -8.311
 77.150 -6.229 -8.003
 75.303 -6.217 -8.050
 76.238 -6.217 -7.055
 76.215 -6.227 -8.997
 78.194 -5.341 -8.231
 74.446 -5.329 -8.278
 75.953 -7.373 -5.859
 78.364 -7.642 -6.562
 79.883 -7.229 -6.316
 77.234 -7.993 -5.436
 69.977 -7.889 -5.926
 72.385 -7.150 -6.648
 70.965 -7.538 -7.005
 73.716 -7.560 -6.894
 79.892 -6.144 -9.075
 79.962 -5.406 -10.036
 81.135 -7.630 -6.524
 81.656 -7.009 -7.860
 82.029 -7.946 -5.538
 72.575 -6.079 -9.357
 72.708 -5.290 -10.286
 70.666 -6.947 -8.247
 71.611 -6.078 -8.361
 74.342 -2.930 -11.881
 74.622 -4.222 -11.199
 77.282 -4.388 -2.537
 75.382 -4.388 -2.537
 76.332 -5.338 -2.537
 76.332 -3.439 -2.537
 78.232 -4.388 -1.587
 74.432 -4.388 -1.587
 76.048 -6.482 -3.238
 77.282 -4.388 -6.338
 75.382 -4.388 -6.338
 76.332 -3.439 -6.338
 76.332 -5.338 -6.338
 78.232 -4.389 -7.287
 74.432 -4.388 -7.287
 76.332 -2.489 -5.388
 78.232 -4.388 -3.487
 78.232 -4.388 -5.388
 78.232 -3.439 -4.438
 78.232 -5.338 -4.438
 79.182 -4.389 -2.537
 79.182 -4.388 -6.338
 77.282 -2.489 -4.438
 74.432 -4.388 -3.487
 74.432 -4.388 -5.388
 74.432 -5.338 -4.438
 74.432 -3.439 -4.438
 73.482 -4.388 -2.537
 73.482 -4.388 -6.338
 75.097 -6.482 -4.188
 76.332 -2.489 0.313
 76.332 -2.489 -1.587
 75.382 -2.489 -0.637
 77.282 -2.489 -0.637
 76.332 -1.539 1.263
 76.332 -1.539 -2.537
 74.432 -3.439 -0.637
 75.382 -2.489 -8.237
 77.282 -2.489 -8.237
 76.332 -2.489 -9.187
 76.332 -2.489 -7.288
 74.432 -3.439 -8.237
 78.232 -3.438 -8.237
 76.543 -1.522 -10.352
 80.938 -6.424 -4.488
 79.038 -6.424 -4.488
 79.988 -6.424 -5.438
 79.988 -6.424 -3.538
 81.728 -7.537 -4.379
 77.804 -7.570 -4.239
 80.132 -5.338 -6.338
 24.126 8.444 3.785
 23.835 7.794 4.978
 23.633 8.945 0.314
 22.497 8.830 -0.837
 22.806 8.500 -2.427
 23.228 8.232 1.524
 11.723 5.372 3.834
 11.821 5.113 1.998
 12.717 5.304 2.984
 10.827 5.180 2.848
 11.559 4.603 5.060
 11.677 4.112 1.211
 13.697 6.392 2.940
 11.681 6.113 0.909
 13.986 6.985 1.632
 9.399 6.153 0.104
 11.546 5.084 0.118
 12.863 6.910 0.590
 13.754 2.166 3.036
 13.660 4.362 3.111
 13.702 3.300 4.018
 13.713 3.228 2.129
 14.571 1.147 3.197
 14.641 5.447 3.066
 12.594 3.471 5.114
 17.063 4.792 6.503
 15.205 4.928 6.442
 15.557 5.419 3.969
 16.478 4.629 7.244
 17.652 4.009 6.783
 13.483 2.461 7.046
 15.838 6.184 4.720
 18.311 5.677 6.402
 18.476 6.510 5.202
 18.899 4.895 6.682
 15.638 2.159 4.921
 15.510 4.327 4.949
 16.512 3.192 4.917
 14.636 3.294 4.953
 15.521 1.147 4.147
 15.792 5.086 5.697
 17.381 3.176 5.950
 20.068 4.924 7.723
 14.938 6.578 -1.946
 15.085 2.909 8.458
 16.403 3.612 8.271
 17.501 3.322 8.043
 13.769 3.335 7.789
 18.712 3.164 8.988
 15.343 1.147 5.929
 15.022 1.617 8.198
 14.296 1.278 6.954
 16.066 1.490 7.181
 15.226 0.135 5.155
 15.002 0.591 8.915
 13.815 4.338 6.788
 13.698 -1.864 2.710
 12.677 -3.466 1.945
 12.792 -2.653 2.645
 13.716 -3.491 0.999
 15.233 -3.160 1.205
 17.637 -3.963 0.665
 15.102 -2.334 2.218
 16.393 -3.940 1.668
 15.544 -2.216 0.296
 15.338 -2.478 -1.774
 14.490 -2.180 -0.721
 16.393 -2.511 -0.754
 15.410 -1.407 1.309
 15.221 -1.412 -3.031
 13.448 -2.980 -0.454
 32.759 8.080 -0.638
 32.632 6.062 -0.637
 32.759 7.130 -1.588
 32.632 7.012 0.313
 33.912 8.882 -0.467
 33.582 5.112 -0.637
 31.854 7.407 -2.720
 28.877 8.090 -0.565
 28.832 6.062 -0.637
 28.776 6.970 0.321
 28.933 7.181 -1.523
 28.200 8.911 -0.210
 27.882 5.112 -0.637
 29.726 6.970 1.271
 32.046 8.914 -0.369
 30.064 8.925 -0.297
 30.913 8.751 0.590
 31.198 9.088 -1.257
 33.199 9.719 -0.199
 29.387 9.745 0.058
 30.676 7.920 1.271
 31.682 5.112 -0.637
 29.782 5.111 -0.637
 30.732 5.111 -1.587
 30.732 5.112 0.313
 32.632 4.162 -0.637
 28.832 4.162 -0.637
 30.777 6.332 -2.717
 35.659 7.326 -2.777
 33.780 7.384 -2.741
 34.837 8.398 -2.779
 34.602 6.311 -2.738
 36.687 7.542 -3.949
 32.875 7.664 -3.875
 34.969 8.944 -1.453
 25.920 7.519 -2.484
 27.972 7.488 -2.640
 26.971 8.652 -2.425
 26.921 6.359 -2.699
 24.892 7.785 -3.611
 28.967 7.769 -3.774
 27.256 9.144 -0.942
 30.798 9.567 1.591
 32.192 10.054 2.127
 27.287 9.599 1.986
 30.561 8.715 2.274
 32.327 7.344 6.587
 32.498 6.123 7.384
 32.480 8.151 7.373
 32.652 6.920 8.166
 33.567 4.964 7.098
 33.627 8.635 6.965
 32.061 6.773 9.041
 28.685 6.583 7.709
 28.718 7.384 6.656
 27.855 5.424 7.421
 29.641 7.267 5.522
 31.588 5.190 7.453
 29.586 5.511 7.570
 30.645 5.309 6.408
 30.848 6.176 9.419
 32.657 4.031 7.166
 28.755 4.352 7.283
 30.667 6.266 5.414
 35.700 6.907 8.725
 33.916 6.656 8.800
 34.658 5.859 8.900
 34.957 7.706 8.626
 36.830 6.991 9.711
 33.325 6.508 9.675
 34.463 4.968 7.983
 26.978 5.526 8.535
 30.710 2.254 5.106
 30.765 4.150 5.171
 31.715 3.200 5.171
 29.760 3.204 5.106
 30.732 1.311 4.112
 30.787 5.108 4.177
 32.665 3.200 6.121
 34.532 6.062 1.263
 34.532 7.962 1.263
 35.482 7.012 1.263
 33.582 7.012 1.263
 34.532 5.112 0.313
 34.734 8.765 0.483
 36.432 7.012 2.212
 34.525 6.033 5.103
 33.870 9.265 4.788
 33.399 7.127 5.344
 35.421 6.987 5.038
 34.525 5.083 6.053
 35.023 8.156 5.393
 32.510 7.151 4.418
 34.532 5.112 2.212
 34.586 5.108 4.177
 33.636 5.108 3.227
 35.482 5.112 3.163
 34.532 4.162 1.263
 34.587 4.158 5.127
 32.686 6.058 3.227
 34.446 8.873 2.282
 33.897 8.300 5.634
 35.396 8.873 3.232
 33.318 9.037 3.480
 34.648 9.695 1.499
 34.998 9.101 4.540
 36.432 7.961 3.163
 36.539 7.071 -1.623
 36.432 7.012 0.313
 36.432 6.062 -0.637
 36.539 8.021 -0.673
 37.566 7.286 -2.795
 37.382 7.011 1.263
 35.482 5.112 -0.637
 36.455 6.962 7.804
 36.371 6.987 5.988
 36.371 6.037 6.938
 36.455 7.912 6.854
 37.586 7.045 8.790
 37.382 7.011 5.063
 35.421 5.087 6.938
 32.632 2.261 3.163
 32.687 4.158 3.227
 32.632 3.212 2.212
 32.686 3.208 4.177
 31.682 1.311 3.163
 31.736 5.108 3.227
 33.582 3.212 1.263
 26.865 8.104 1.536
 26.932 6.062 1.263
 25.972 7.196 1.528
 27.826 6.970 1.271
 27.138 8.918 0.947
 26.932 5.112 0.313
 25.037 7.184 2.491
 27.117 8.071 5.449
 26.960 6.175 5.244
 27.889 7.169 5.415
 26.188 7.075 5.277
 26.960 5.225 6.194
 28.812 7.052 4.281
 27.015 8.781 2.576
 27.237 8.638 4.407
 29.319 9.011 3.955
 26.297 8.783 3.555
 28.451 8.121 2.785
 26.932 5.112 2.212
 26.932 5.111 4.112
 25.982 5.111 3.163
 27.882 5.112 3.163
 26.932 4.162 1.263
 26.932 4.162 5.063
 25.048 6.049 3.175
 24.982 7.203 -1.361
 25.021 7.196 0.578
 24.969 8.354 -0.145
 25.032 6.062 -0.637
 23.954 7.466 -2.486
 24.087 7.184 1.541
 26.192 9.165 0.215
 25.409 7.098 6.267
 25.304 6.299 7.347
 24.448 6.967 5.144
 28.485 8.211 3.899
 29.287 8.910 2.836
 40.232 3.212 2.212
 40.232 3.212 4.112
 40.232 2.261 3.163
 40.232 4.162 3.163
 41.182 3.212 1.263
 41.182 3.212 5.063
 39.282 1.311 3.163
 36.432 3.212 2.212
 36.432 3.212 4.112
 36.432 4.162 3.163
 36.432 2.261 3.163
 35.482 3.211 1.263
 35.482 3.212 5.063
 37.382 5.112 3.163
 39.282 3.212 1.263
 37.382 3.212 1.263
 38.332 4.162 1.263
 38.332 2.261 1.263
 40.232 3.211 0.313
 36.432 3.212 0.313
 38.332 5.112 2.212
 39.282 3.212 5.063
 37.382 3.212 5.063
 38.332 2.261 5.063
 38.332 4.162 5.063
 40.232 3.212 6.013
 36.432 3.212 6.013
 38.332 1.311 4.112
 43.082 1.311 3.163
 41.182 1.311 3.163
 42.132 1.311 2.212
 42.132 1.311 4.112
 44.032 0.361 3.163
 40.232 0.361 3.163
 42.132 2.262 1.263
 33.582 1.311 3.163
 35.482 1.311 3.163
 34.532 1.311 2.212
 34.532 1.311 4.112
 32.632 0.361 3.163
 36.432 0.361 3.163
 34.532 2.262 1.263
 38.332 5.111 -1.587
 38.332 5.112 0.313
 39.282 5.112 -0.637
 37.382 5.111 -0.637
 38.409 6.273 -2.758
 38.332 6.062 1.263
 40.232 4.162 -0.637
 34.512 -6.203 0.197
 30.756 -5.765 -0.599
 29.919 -5.450 -1.600
 28.091 -4.045 -0.948
 32.231 -5.354 -0.681
 34.375 -5.920 6.234
 32.492 -3.789 7.017
 30.705 -3.783 5.042
 30.603 -5.641 4.680
 29.607 -4.617 4.785
 31.700 -4.809 4.938
 30.819 -2.565 4.020
 28.580 -4.767 5.738
 26.380 -5.353 3.150
 27.279 -5.492 1.946
 27.141 -4.045 0.002
 26.812 -5.173 4.578
 28.846 -3.372 3.164
 28.737 -5.164 2.418
 28.798 -4.250 1.822
 28.787 -4.273 3.761
 29.782 -2.489 3.163
 26.157 -4.854 0.002
 33.439 -5.926 -0.964
 35.509 -5.821 7.200
 34.896 -6.265 3.904
 34.255 -5.622 1.432
 34.533 -5.539 5.058
 21.871 -3.244 3.312
 20.711 -3.722 3.184
 20.759 -4.393 2.175
 20.060 -4.217 0.981
 20.328 -4.194 4.401
 22.140 -2.099 3.165
 24.971 -3.781 2.219
 25.007 -3.721 3.978
 24.973 -4.530 3.030
 25.003 -2.982 3.166
 26.390 -4.574 1.349
 25.922 -4.260 4.928
 23.525 -4.525 0.486
 23.581 -4.029 1.683
 22.608 -3.723 0.484
 22.663 -3.234 1.680
 21.165 -4.218 -0.086
 24.684 -4.542 -0.321
 22.353 -3.760 4.676
 24.050 -3.828 4.864
 23.097 -3.083 5.001
 23.305 -4.509 4.539
 21.538 -4.137 5.413
 24.965 -4.364 5.814
 23.089 -2.099 4.115
 18.161 -2.596 2.926
 20.030 -2.576 3.037
 19.080 -2.576 2.087
 19.111 -2.596 3.876
 17.330 -1.627 3.212
 21.232 -1.539 3.163
 19.062 -3.552 1.041
 27.896 -2.422 3.164
 25.996 -2.422 3.164
 26.946 -2.422 2.214
 26.946 -2.422 4.114
 28.832 -1.539 3.163
 25.032 -1.539 3.163
 27.373 -3.775 1.347
 28.752 3.436 -5.635
 28.832 3.212 -3.487
 28.801 4.365 -4.703
 28.782 2.282 -4.419
 27.736 3.429 -6.608
 27.882 3.212 -2.537
 29.796 5.599 -4.897
 32.632 3.212 -5.388
 32.632 3.212 -3.487
 32.632 2.261 -4.437
 32.632 4.162 -4.437
 33.582 3.330 -6.561
 33.582 3.212 -2.537
 31.682 1.311 -4.438
 29.663 3.335 -6.776
 31.645 3.103 -6.512
 30.645 2.174 -6.493
 30.663 4.265 -6.794
 28.646 3.328 -7.750
 32.594 3.223 -7.691
 30.682 1.332 -5.369
 29.782 3.212 -2.537
 31.682 3.212 -2.537
 30.732 4.162 -2.537
 30.732 2.261 -2.537
 28.832 3.211 -1.587
 32.632 3.212 -1.587
 30.777 5.382 -3.667
 25.937 5.377 -4.515
 27.840 5.624 -4.874
 26.801 4.326 -6.542
 26.921 5.409 -3.649
 24.909 6.570 -4.680
 28.835 6.858 -5.068
 26.347 6.249 -6.428
 35.572 5.357 -4.628
 33.652 5.361 -4.638
 34.622 5.357 -5.578
 34.602 5.361 -3.688
 36.599 6.519 -4.848
 32.747 6.584 -4.819
 34.552 4.275 -6.550
 29.574 0.863 -8.064
 30.758 1.193 -7.569
 30.799 0.353 -6.422
 28.860 -4.154 -3.875
 28.952 -3.478 -4.882
 27.766 -4.292 -3.160
 32.088 -4.664 -3.789
 32.294 -3.988 -5.021
 33.114 -4.579 -2.671
 31.538 -2.768 -4.851
 29.696 -4.223 -2.822
 31.330 -4.399 -2.675
 30.660 -3.502 -2.697
 30.367 -5.119 -2.801
 29.259 -3.842 -0.555
 32.355 -4.323 -1.561
 30.660 -2.552 -3.647
 33.846 -5.637 -2.482
 30.732 -2.489 0.313
 30.732 -2.489 -1.587
 29.782 -2.489 -0.637
 31.682 -2.489 -0.637
 30.732 -1.539 1.263
 30.732 -1.539 -2.537
 29.246 -4.562 -1.627
 26.932 1.311 -3.487
 26.787 1.157 -5.708
 25.887 1.137 -4.776
 27.832 1.332 -4.419
 26.932 2.262 -2.537
 26.719 2.083 -6.673
 24.936 0.213 -4.794
 27.046 -2.421 -3.593
 27.338 -2.385 -5.771
 28.076 -2.466 -4.725
 26.309 -2.339 -4.638
 26.829 -3.572 -3.037
 28.912 -1.580 -4.617
 26.932 0.361 -2.537
 26.932 -1.539 -2.537
 27.882 -0.589 -2.537
 25.982 -0.589 -2.537
 26.932 1.311 -1.587
 26.715 -2.686 -1.980
 28.832 -0.589 -3.487
 27.032 0.352 -6.656
 27.466 -1.355 -6.623
 26.343 -0.538 -6.778
 28.152 -0.471 -6.513
 26.960 1.276 -7.637
 25.147 -0.656 -5.846
 24.998 4.129 -4.354
 24.937 2.087 -4.776
 25.032 3.212 -3.487
 24.662 3.666 -5.663
 23.971 5.320 -4.516
 23.986 1.163 -4.794
 25.982 3.211 -2.537
 25.616 -3.133 -4.631
 25.661 -3.892 -3.502
 24.553 -2.214 -4.536
 24.501 -4.049 -2.686
 28.832 -0.589 0.313
 28.832 -0.589 -1.587
 28.832 0.361 -0.637
 28.832 -1.539 -0.637
 29.782 -0.589 1.263
 29.782 -0.589 -2.537
 27.882 1.311 -0.637
 34.438 1.224 -5.519
 34.569 1.282 -3.515
 35.388 1.224 -4.569
 33.619 1.282 -4.465
 34.401 2.322 -6.665
 34.532 2.261 -2.537
 36.338 0.274 -4.569
 34.407 -3.748 -6.684
 34.445 -2.910 -3.789
 33.357 -2.987 -4.879
 35.243 -2.853 -4.809
 34.155 -2.930 -5.900
 34.408 -3.830 -2.811
 32.600 -1.775 -4.713
 33.873 -1.243 -6.208
 34.539 -2.735 -7.681
 34.665 -0.309 -7.190
 34.761 -0.144 -6.064
 34.083 1.789 -7.936
 33.775 -1.415 -7.344
 32.600 -0.825 -5.663
 34.569 0.332 -2.565
 34.635 -1.709 -2.681
 35.585 -0.759 -2.681
 33.619 -0.618 -2.565
 34.532 1.311 -1.587
 34.598 -2.629 -1.703
 36.535 -0.759 -3.631
 36.452 4.157 -4.427
 36.301 2.204 -4.541
 36.321 3.149 -5.481
 36.432 3.212 -3.487
 37.479 5.319 -4.647
 37.251 1.254 -4.541
 35.371 3.267 -6.654
 36.137 -5.517 -4.071
 36.167 -4.840 -5.553
 35.959 -4.810 -3.492
 36.025 -3.696 -4.702
 37.164 -2.495 -4.544
 37.511 -4.593 -6.307
 32.614 -1.036 -7.863
 32.846 0.076 -8.388
 31.725 -0.835 -6.702
 34.945 1.729 -8.855
 31.243 6.343 -6.639
 31.154 5.014 -7.608
 32.610 4.452 -8.040
 21.232 0.361 -0.637
 21.114 -1.731 -0.977
 21.232 -0.589 0.313
 21.114 -0.781 -1.927
 20.282 1.311 -0.637
 20.145 -2.708 -1.076
 22.182 -0.589 1.263
 25.032 0.361 -0.637
 25.032 -1.539 -0.637
 25.032 -0.589 -1.587
 25.032 -0.589 0.313
 25.982 1.311 -0.637
 25.765 -2.686 -1.030
 24.081 -0.562 -2.556
 22.182 1.311 -0.637
 24.082 1.311 -0.637
 23.132 1.311 -1.587
 23.132 1.311 0.313
 21.232 2.262 -0.637
 25.032 2.261 -0.637
 23.131 0.388 -2.556
 21.967 -2.784 -1.224
 23.986 -2.580 -0.879
 23.036 -2.580 0.071
 23.174 -3.578 -3.114
 20.997 -3.762 -1.323
 24.720 -3.726 -1.270
 23.132 -1.539 1.263
 18.382 -0.589 1.263
 20.282 -0.589 1.263
 19.332 0.361 1.263
 19.332 -1.539 1.263
 17.299 -0.658 2.373
 21.232 -0.589 2.212
 19.332 1.311 0.313
 27.882 -0.589 1.263
 25.982 -0.589 1.263
 26.932 0.361 1.263
 26.932 -1.539 1.263
 28.832 -0.589 2.212
 25.032 -0.589 2.212
 26.932 1.311 0.313
 23.132 4.162 -2.537
 23.132 2.261 -2.537
 22.182 3.212 -2.537
 24.082 3.212 -2.537
 23.055 5.352 -3.650
 23.131 1.338 -3.506
 21.232 3.211 -1.587
 32.382 2.643 11.413
 32.777 4.090 11.137
 32.457 3.303 10.275
 32.698 3.439 12.287
 34.056 3.030 12.866
 33.504 3.087 8.998
 32.162 4.895 11.033
 28.680 3.776 10.734
 28.723 2.588 11.545
 27.828 3.558 9.455
 29.587 1.554 11.313
 30.468 1.699 12.436
 31.523 3.324 9.365
 29.593 3.647 9.623
 30.870 5.233 10.409
 30.566 2.521 9.383
 32.570 3.108 8.088
 28.741 3.429 8.346
 30.550 4.450 9.605
 35.853 4.996 10.758
 34.019 4.765 10.779
 35.190 4.856 11.658
 34.682 4.904 9.879
 36.960 6.032 10.765
 33.405 5.571 10.675
 35.302 3.781 12.609
 30.772 0.502 12.840
 33.276 -4.404 9.481
 33.078 -3.673 10.666
 33.939 -4.383 8.658
 28.419 -4.153 8.178
 29.589 -3.227 10.192
 29.690 -4.000 8.965
 30.144 -2.368 10.417
 32.060 -4.583 8.632
 30.720 -3.690 8.850
 32.724 -4.556 7.807
 30.765 -2.430 9.700
 35.187 -5.274 8.465
 30.704 -2.834 5.992
 30.476 -2.747 8.059
 31.585 -2.868 7.048
 29.595 -2.713 7.003
 30.819 -1.615 4.970
 30.520 -1.492 8.912
 32.837 -5.556 6.650
 34.219 1.199 9.979
 35.416 1.698 12.859
 35.367 1.333 10.653
 33.188 1.365 11.203
 34.462 2.256 8.904
 34.216 1.707 13.387
 36.471 0.373 10.507
 34.371 -2.721 10.016
 34.572 -3.014 11.935
 33.541 -2.839 10.950
 35.401 -2.897 11.001
 34.571 -3.535 8.909
 32.370 -1.754 10.949
 34.256 0.278 9.024
 34.219 -1.679 9.093
 33.237 -0.707 9.130
 35.239 -0.695 8.987
 34.500 1.334 7.950
 34.420 -2.494 7.987
 32.217 -0.670 10.056
 35.393 -0.783 12.672
 34.395 -2.007 12.904
 34.875 0.833 12.043
 32.164 -1.268 12.057
 33.675 0.842 12.571
 36.483 -0.783 11.595
 36.644 4.175 10.741
 36.597 2.460 10.480
 36.431 3.255 9.769
 36.810 3.381 11.452
 37.751 5.211 10.747
 37.700 1.501 10.334
 35.444 3.183 8.867
 36.645 -3.937 10.978
 36.863 -4.649 9.798
 37.560 -2.928 10.861
 35.819 -4.426 8.716
 32.719 -0.665 5.920
 32.530 -0.600 8.056
 32.600 0.384 7.000
 32.650 -1.650 6.976
 31.769 -0.665 4.970
 31.510 -0.564 8.981
 33.550 1.334 7.000
 27.449 0.538 11.639
 27.565 1.868 11.566
 26.622 1.911 10.493
 26.507 0.589 10.556
 26.934 2.406 9.174
 25.014 0.083 11.070
 26.656 -2.796 8.074
 28.298 -2.542 10.619
 27.019 -3.625 8.735
 28.912 -0.823 11.967
 28.582 -0.726 10.125
 26.787 0.152 9.268
 26.638 -1.952 9.282
 25.760 -1.046 9.314
 27.665 -0.754 9.236
 26.880 1.348 8.062
 26.999 -2.789 9.951
 24.766 -1.075 10.386
 25.364 2.357 10.957
 25.277 3.435 10.271
 21.926 1.555 10.523
 30.158 -0.591 12.430
 40.232 0.361 6.963
 40.232 -1.539 6.963
 40.232 -0.589 6.013
 40.232 -0.589 7.912
 41.182 1.311 6.963
 41.182 -2.489 6.963
 39.282 -0.589 5.063
 36.432 0.361 6.963
 36.432 -1.539 6.963
 36.432 -0.589 7.912
 36.432 -0.589 6.013
 35.482 1.311 6.963
 35.439 -2.459 6.931
 37.498 -0.626 8.721
 39.282 1.311 6.963
 37.382 1.311 6.963
 38.332 1.311 7.912
 38.332 1.311 6.013
 40.232 2.262 6.963
 36.432 2.261 6.963
 38.448 0.324 8.721
 39.282 -2.489 6.963
 37.382 -2.489 6.963
 38.332 -2.489 6.013
 38.332 -2.489 7.912
 40.232 -3.439 6.963
 36.389 -3.409 6.931
 38.332 -1.539 5.063
 43.082 -0.589 5.063
 41.182 -0.589 5.063
 42.132 0.361 5.063
 42.132 -1.539 5.063
 44.032 -0.589 4.112
 40.232 -0.589 4.112
 42.132 1.311 6.013
 33.669 -0.665 4.970
 35.482 -0.589 5.063
 34.532 0.361 5.063
 34.619 -1.615 4.970
 32.719 -0.665 4.020
 36.432 -0.589 4.112
 34.532 1.311 6.013
 38.368 4.233 8.814
 38.368 2.333 8.814
 39.318 3.283 8.814
 37.418 3.283 8.814
 38.488 5.237 9.772
 38.484 1.345 9.623
 40.232 3.211 7.912
 39.388 10.048 1.410
 38.272 9.605 1.141
 36.996 9.963 0.816
 38.162 8.849 1.988
 38.015 9.781 4.466
 40.350 10.238 4.653
 36.503 10.230 4.063
 36.121 9.794 2.988
 35.849 10.143 1.729
 35.855 9.991 5.138
 40.439 9.838 0.781
 39.752 9.763 2.733
 39.131 10.241 3.787
 39.111 8.849 2.938
 38.606 8.792 -1.549
 38.496 8.687 0.437
 37.600 8.773 -0.569
 40.639 8.208 -1.065
 38.572 8.256 -2.826
 38.386 7.936 1.282
 36.852 9.580 -0.400
 38.358 8.939 7.393
 38.240 8.850 5.660
 37.371 8.838 6.531
 39.226 8.949 6.521
 38.572 8.093 8.702
 38.332 7.961 5.063
 36.498 9.536 6.414
 42.171 5.024 2.070
 42.171 5.024 3.970
 41.221 5.024 3.020
 43.121 5.024 3.020
 42.132 4.162 1.263
 42.132 4.162 5.063
 40.271 5.974 3.020
 44.069 8.619 2.425
 41.828 8.771 3.741
 41.772 9.868 1.058
 40.966 8.763 2.835
 42.244 8.152 1.047
 41.833 9.783 4.505
 45.093 9.574 2.407
 42.171 5.974 1.120
 41.934 9.070 1.791
 43.140 7.228 1.027
 41.275 6.898 1.140
 42.132 5.112 0.313
 42.081 8.945 0.316
 44.090 7.228 1.977
 42.171 5.974 4.920
 42.137 7.857 4.896
 41.221 6.924 4.920
 43.087 6.907 4.896
 42.132 5.112 6.013
 42.142 8.854 5.660
 40.271 6.924 3.970
 44.032 2.261 3.162
 44.032 4.162 3.162
 44.032 3.212 4.112
 44.032 3.212 2.212
 44.982 1.311 3.163
 44.982 5.112 3.163
 43.082 3.212 5.062
 44.118 10.185 4.807
 42.757 9.205 3.241
 42.762 10.230 4.006
 40.288 7.028 -1.617
 40.285 6.986 0.332
 39.800 8.961 -0.961
 40.232 6.062 -0.637
 39.415 7.243 -2.789
 39.335 6.986 1.282
 40.637 8.164 -0.065
 39.196 -6.364 2.120
 42.687 -5.760 5.049
 43.751 -7.032 3.560
 44.144 -7.446 4.699
 41.530 -6.468 0.408
 40.703 -7.195 0.671
 41.633 -5.770 1.471
 40.094 -7.194 1.766
 41.411 -6.892 3.361
 42.529 -5.763 1.469
 39.973 -5.692 2.885
 42.585 -6.572 2.843
 41.588 -5.979 5.400
 42.425 -6.462 0.407
 40.854 -6.759 4.541
 40.443 -5.824 -1.256
 40.632 -5.638 -0.187
 44.011 -3.515 3.220
 43.993 -5.392 3.267
 43.976 -4.442 2.318
 44.027 -4.464 4.169
 44.982 -2.489 3.163
 44.616 -6.208 3.156
 43.055 -4.459 1.348
 23.087 1.187 -5.969
 24.061 -0.899 -6.301
 23.225 2.120 -6.802
 23.189 4.115 -6.293
 25.547 3.645 -6.612
 22.321 3.223 -6.626
 22.970 5.307 -5.631
 24.599 2.573 -6.094
 23.941 -1.991 -5.467
 19.279 0.309 -2.862
 19.066 -1.885 -3.434
 20.106 -0.846 -3.219
 18.239 -0.730 -3.078
 19.332 1.311 -1.587
 19.106 -2.804 -2.238
 21.395 -1.542 -5.110
 19.243 1.293 -3.782
 19.471 1.594 -6.007
 18.472 1.577 -4.820
 20.244 1.310 -4.964
 19.297 2.295 -2.508
 17.441 0.776 -5.056
 21.054 -0.820 -4.187
 17.432 -0.589 0.313
 17.346 -0.670 -1.793
 17.346 -1.620 -0.843
 17.432 0.361 -0.637
 16.349 -0.658 1.423
 16.278 -0.495 -2.956
 18.276 -2.600 -0.943
 21.148 4.168 -4.556
 21.250 2.320 -4.626
 21.196 3.245 -3.458
 22.054 5.340 -4.765
 22.234 1.363 -4.674
 21.198 3.245 -5.747
 9.444 -3.030 1.165
 9.064 -2.291 3.257
 9.923 -3.157 3.354
 10.323 -3.298 2.050
 7.264 -1.689 0.981
 8.584 -2.234 1.844
 12.630 -3.149 3.897
 9.891 -1.494 3.375
 11.498 -2.855 4.553
 11.810 -1.116 1.223
 13.537 -2.356 3.960
 10.751 -2.355 3.472
 6.028 -1.656 3.475
 9.693 -1.084 6.157
 10.221 -0.644 7.706
 10.219 -1.831 6.963
 10.711 1.555 6.868
 6.140 -0.249 6.585
 5.868 -1.422 5.881
 6.529 -1.374 4.874
 7.981 0.554 6.222
 8.121 1.887 6.114
 8.672 1.917 7.007
 8.526 0.571 7.150
 9.750 2.554 6.862
 6.935 2.315 6.414
 9.700 0.089 6.873
 7.759 -2.150 5.285
 12.606 -0.982 5.183
 10.797 -0.758 5.186
 11.805 0.246 5.001
 11.598 -1.987 5.368
 13.413 -1.053 4.430
 9.838 -0.760 4.272
 11.707 1.382 5.991
 6.194 1.449 5.712
 11.681 0.286 8.220
 12.856 -1.662 6.932
 13.810 -0.379 8.514
 11.562 1.693 7.902
 13.614 -2.229 7.166
 13.320 -1.022 6.090
 14.215 -1.545 8.101
 13.372 0.336 6.933
 14.127 -1.093 5.337
 12.900 -0.286 7.807
 11.626 -2.275 6.640
 54.332 2.801 -10.032
 52.558 2.818 -10.000
 53.472 1.957 -10.062
 53.418 3.663 -9.971
 55.342 3.102 -9.153
 51.669 3.116 -9.114
 53.362 0.873 -11.054
 55.112 2.681 -10.871
 56.123 2.981 -9.990
 51.714 2.707 -10.723
 51.976 0.484 -11.508
 50.826 3.002 -9.832
 53.521 4.959 -7.091
 53.468 4.766 -8.892
 54.381 4.856 -8.011
 52.608 4.870 -7.972
 53.463 6.103 -6.196
 55.343 4.052 -8.203
 55.460 1.415 -11.505
 56.947 1.241 -11.093
 54.571 0.445 -11.651
 53.159 -4.453 -10.172
 54.966 -4.213 -9.952
 53.579 -2.665 -11.287
 54.450 -5.069 -9.857
 51.891 -4.955 -9.559
 55.623 -4.405 -9.087
 53.498 -2.896 -9.306
 56.124 -3.923 -10.913
 56.783 -4.114 -10.047
 53.940 -6.261 -7.120
 54.581 -6.035 -8.773
 53.352 -6.365 -7.981
 55.168 -5.942 -7.920
 53.583 -5.576 -6.289
 51.511 -4.109 -8.752
 54.598 1.257 -8.135
 52.697 1.257 -8.135
 53.648 1.257 -7.185
 53.648 1.257 -9.085
 55.432 2.262 -8.237
 51.632 2.261 -8.237
 53.648 0.307 -6.235
 54.519 -2.661 -8.073
 52.603 -2.906 -8.404
 53.402 -1.966 -10.321
 53.623 -2.671 -7.171
 55.353 -3.557 -8.175
 51.571 -5.056 -7.640
 53.676 -3.591 -10.259
 55.547 0.307 -8.135
 55.483 -1.585 -8.105
 55.483 -0.635 -9.055
 55.547 -0.643 -7.185
 56.382 1.311 -8.237
 56.317 -2.480 -8.207
 54.425 -0.775 -10.024
 51.748 0.307 -8.135
 51.667 -1.830 -8.436
 51.737 -0.645 -7.203
 52.042 -1.499 -9.877
 50.682 1.311 -8.237
 50.576 -3.032 -8.784
 52.688 -0.645 -6.253
 53.532 4.162 -6.338
 53.532 2.261 -6.338
 54.482 3.212 -6.338
 52.582 3.212 -6.338
 53.475 5.301 -5.441
 53.532 1.311 -5.388
 55.432 3.211 -7.287
 53.668 -6.439 -5.295
 53.575 -3.647 -6.218
 54.542 -4.400 -6.169
 52.615 -4.822 -6.337
 54.024 -7.137 -6.130
 53.589 -2.570 -5.300
 55.425 -4.321 -7.225
 58.068 -0.544 -10.240
 56.103 -0.536 -10.210
 57.118 0.406 -10.240
 57.053 -1.486 -10.210
 58.669 -0.736 -11.346
 55.044 -0.677 -11.187
 57.332 1.311 -9.187
 56.867 3.815 -9.983
 56.898 4.638 -9.120
 58.096 1.391 -11.585
 58.582 2.661 -10.989
 58.867 0.370 -11.861
 57.957 -5.016 -10.131
 58.007 -5.925 -9.157
 59.663 -3.997 -11.115
 58.388 -1.994 -11.814
 58.639 -4.158 -10.155
 39.339 2.962 -9.599
 37.979 2.270 -9.592
 36.490 4.593 -7.829
 40.372 2.799 -9.244
 43.091 3.060 -9.869
 38.793 4.882 -7.174
 39.492 4.267 -8.926
 38.265 4.889 -8.341
 41.447 5.069 -7.680
 38.882 6.055 -6.460
 36.201 2.258 -8.526
 39.098 1.213 -8.321
 37.155 1.190 -8.283
 38.189 1.250 -7.380
 38.064 1.153 -9.224
 40.048 2.163 -8.321
 36.309 3.263 -7.593
 38.201 0.304 -6.441
 39.693 -2.410 -8.210
 37.711 -2.272 -8.138
 39.020 -2.249 -9.025
 38.384 -2.432 -7.323
 40.764 -3.464 -8.301
 37.050 -3.114 -7.999
 40.040 0.247 -8.329
 40.422 -1.472 -8.234
 40.249 -0.620 -9.288
 40.212 -0.608 -7.284
 40.990 1.197 -8.329
 41.494 -2.525 -8.323
 36.090 -0.784 -7.665
 36.155 0.046 -8.509
 36.563 -0.680 -9.220
 36.501 -1.509 -8.368
 34.889 0.459 -8.814
 35.837 -2.358 -8.238
 37.099 -0.589 -6.512
 38.340 4.153 -6.316
 38.189 2.200 -6.430
 39.270 3.207 -6.327
 37.259 3.145 -6.420
 38.429 5.319 -5.597
 38.201 1.254 -5.491
 40.220 3.207 -7.277
 38.831 -5.146 -5.846
 38.252 -3.305 -6.293
 39.536 -4.305 -6.101
 37.119 -3.667 -6.620
 38.936 -5.775 -4.515
 38.049 -2.355 -5.378
 40.741 -4.489 -7.218
 41.559 -0.248 -10.030
 45.076 -0.778 -10.289
 41.827 1.097 -9.526
 36.650 6.833 -6.124
 35.098 5.336 -7.683
 42.132 0.361 -2.537
 42.132 -1.539 -2.537
 43.082 -0.589 -2.537
 41.182 -0.589 -2.537
 42.132 1.311 -1.587
 42.161 -2.505 -1.607
 44.032 -0.589 -3.487
 42.112 0.342 -6.334
 42.113 -1.558 -6.334
 41.163 -0.608 -6.334
 43.063 -0.608 -6.334
 42.113 1.292 -7.284
 42.237 -2.603 -7.364
 40.232 -0.589 -5.388
 42.132 1.311 -3.487
 42.132 1.311 -5.388
 41.182 1.311 -4.438
 43.082 1.311 -4.438
 42.132 2.262 -2.537
 42.132 2.261 -6.338
 40.232 0.361 -4.438
 42.132 -2.489 -3.487
 42.132 -2.489 -5.388
 43.082 -2.489 -4.438
 41.182 -2.489 -4.438
 42.161 -3.455 -2.557
 42.256 -3.534 -6.417
 44.032 -1.539 -4.438
 44.032 -0.589 0.313
 44.032 -0.589 -1.587
 44.032 0.361 -0.637
 44.032 -1.539 -0.637
 44.982 -0.589 1.263
 44.982 -0.589 -2.537
 43.082 1.311 -0.637
 43.941 -0.804 -9.459
 43.925 -0.656 -7.169
 43.812 0.194 -8.368
 44.057 -1.648 -8.239
 44.895 -0.636 -6.222
 42.950 1.192 -8.483
 40.232 4.162 -4.438
 40.232 2.261 -4.438
 40.232 3.212 -3.487
 40.232 3.212 -5.388
 39.359 5.323 -4.658
 39.282 1.311 -4.437
 41.182 3.211 -2.537
 50.051 4.631 -9.002
 50.050 3.813 -9.750
 51.394 6.222 -6.918
 51.767 5.574 -7.945
 43.019 4.286 -9.130
 41.694 2.234 -9.993