TITLE = "New Centroid Vectors"
VARIABLES = "XV", "YV", "ZV" 
ZONE T="Step 0 Incr 0" 
F = VECTORS
4.465159607759666138e-01 -8.944643473617455154e-01 2.360144213903358004e-02
6.081987537189580406e-01 -5.443320412781338380e-01 -5.777515943835085377e-01
9.833969445740897708e-01 -1.811462384773495915e-01 1.079303886084443352e-02
4.670666472530395352e-01 7.807203535932778493e-01 4.151198339142470051e-01
4.087657426040721687e-01 -9.121717629691499241e-01 2.921031521730405034e-02
4.663486934237213166e-01 -8.802711010882073861e-01 8.741673026911435385e-02
4.747705724488932022e-01 7.846733102454024333e-01 3.985984191201376037e-01
4.726777476421296087e-01 -5.002654695065826829e-01 -7.254724025787070429e-01
4.753646992679532723e-01 8.780646367315014800e-01 -5.505357764455101610e-02
4.471715019739639363e-01 8.764389884265002539e-01 -1.785842865099898091e-01
4.510874842226980097e-01 8.013524235976988708e-01 3.928795932238418609e-01
3.305014858261916544e-01 8.528228678958751363e-01 -4.043042466516206801e-01
9.999998367789353360e-01 -1.359952563958694623e-04 -5.549300793561038562e-04
2.608571868520812576e-01 -6.769566187642315214e-01 6.882465142511928757e-01
3.558145725946798010e-01 -7.955933136952719753e-01 4.903338343747471462e-01
3.392848593915090416e-01 9.294103387026513285e-01 -1.451971297936250627e-01
3.387660181367241341e-01 9.276947937042334669e-01 -1.569074717464039037e-01
5.105707308992826210e-01 8.598280631164235688e-01 -3.637392806928121253e-03
4.980222801253166853e-01 8.670570302397396789e-01 -1.363505814522311156e-02
5.042065754418647572e-01 8.629445905710390052e-01 -3.320185063169063533e-02
4.826214027141675356e-01 8.747278413947676690e-01 -4.390654997901135420e-02
4.205952933267846916e-01 -7.847355851863205833e-01 4.552907429035195630e-01
3.290848281317877988e-01 -4.185908626646652198e-01 8.464542903117232564e-01
4.268863262130085379e-01 -8.298600649431525644e-01 3.593053535711754898e-01
4.356019313678413107e-01 -8.471421492498489858e-01 3.043043482320836879e-01
4.313699728315137372e-01 -8.367182387285712064e-01 3.373759557501049833e-01
4.974710603469200687e-01 8.674735618399933568e-01 -3.487639021796382251e-03
4.823570630817732852e-01 8.741456639011698782e-01 -5.657757486768994620e-02
4.866223656120053365e-01 8.714170852838145631e-01 -6.189456164831415308e-02
5.598684316526701954e-01 8.197434818203263029e-01 -1.206978179250466077e-01
5.499783681713128480e-01 8.091293278067918093e-01 -2.069626184279397541e-01
5.472105661639140584e-01 8.341458923184509322e-01 -6.900164205889451619e-02
9.997211534541886602e-01 -2.346930395539425021e-02 2.609043517435244083e-03
8.957878530290719343e-01 -4.439465462730864398e-01 2.180794391418567485e-02
9.999994895066337541e-01 -1.002403141952115445e-03 1.271786655299016774e-04
7.108900826759967373e-01 -6.875333808820023318e-01 1.480984150012352729e-01
4.234857581673305837e-01 -9.053871703028881779e-01 3.055952356255207253e-02
4.414569228657990174e-01 -8.967518320858566261e-01 3.085347475600615924e-02
4.304034751572792805e-01 -9.017789754426990267e-01 3.933863269171081201e-02
5.065734992844209694e-01 8.611628742158183858e-01 -4.221130056142817499e-02
4.814518333080541890e-01 7.855687692343544803e-01 3.886976215619734054e-01
5.032667416133699279e-01 8.616100177272274507e-01 6.596032245182337217e-02
2.216808912478011873e-01 5.412843171820832522e-01 -8.110911603687382954e-01
2.142381679728078414e-01 5.390528968204167937e-01 -8.145698139589828690e-01
4.989137337702927999e-01 8.664750705052818303e-01 1.749395462016253150e-02
5.207591792436200295e-01 8.536921561087827959e-01 4.424910377495535480e-03
5.416757449109945721e-01 8.405686765877858901e-01 5.629148654772996724e-03
-5.261429443356309410e-02 -1.191672876260369829e-01 9.914791442996225834e-01
-5.461575058514952369e-02 -1.669816271802712360e-01 9.844461671276137915e-01
1.470973192411095531e-01 -1.838644674176082294e-01 9.718828305373637955e-01
3.184435957341748558e-01 8.328206872975545405e-01 -4.527729885330155635e-01
3.390238394173851200e-01 9.340814193357011019e-01 1.120479288451913247e-01
3.230676930534847613e-01 9.151180645220930998e-01 -2.412181454419162763e-01
3.503585989697191594e-01 8.311360360833156546e-01 -4.318121601480078287e-01
2.316344579474584331e-01 5.768708260568615742e-01 -7.833042371491815148e-01
4.231220176327896709e-01 -5.171021202909251158e-02 9.045959386191513296e-01
6.817849816164198717e-01 -4.175128365014594833e-01 6.007098053126844750e-01
3.024724219374869683e-01 1.282933972284405200e-01 9.444846415875995937e-01
-7.059469255193462356e-02 -6.765489078041040383e-01 7.330061150717446239e-01
3.558847329151323957e-01 7.268527781918696640e-01 -5.873934760556039913e-01
3.123247545336617081e-01 9.392907753578655372e-01 1.420777499579289893e-01
3.286855828827733306e-01 9.438401341691620150e-01 -3.363909535867494471e-02
9.994457390487501147e-01 -3.323684670536042329e-02 1.877955905262175063e-03
5.421606831220192602e-01 7.073234027736873264e-01 -4.536026869026653086e-01
1.143985280876372301e-01 1.617421056503844101e-01 9.801798141316530044e-01
1.501317791499248155e-01 6.903408788333292856e-02 9.862528801475788365e-01
1.978229973861767022e-01 -5.887009071465244547e-01 -7.837712061756337834e-01
4.702935751564004119e-01 -5.152979059538614903e-01 -7.164440112710668274e-01
4.242106436672481440e-01 -8.713160983560283013e-01 2.466851972556261818e-01
2.865325454712041586e-01 7.199048713409756939e-01 -6.321677598591417535e-01
8.956798852686322920e-01 2.139744221760350451e-01 3.898364910826095930e-01
3.352422977742249288e-01 9.244510378786247040e-01 -1.816669489703379436e-01
2.019323833415276881e-01 -1.563867009383643203e-02 9.792746012001467548e-01
5.227803985307487578e-01 8.522860103486384897e-01 1.758441002797631048e-02
2.744675729903574002e-01 -1.263567823796266365e-01 9.532583673503477462e-01
2.734891477333148413e-01 -9.094257102200851983e-02 9.575662561139108853e-01
2.665079658329271850e-01 7.790253326980657311e-01 -5.675324089091858815e-01
4.811138914497304353e-01 8.739511819925803726e-01 -6.883861523787931924e-02
4.861172158773731655e-01 8.728783189218178862e-01 -4.211285770228018199e-02
4.048885126183148220e-01 -9.136776488362021720e-01 3.547458762097816659e-02
5.080793970488148847e-01 8.612514610308278362e-01 1.006216511378757797e-02
3.800631659124906747e-01 -2.691472576351641166e-01 8.849360110335917629e-01
3.982352774454657740e-01 -6.201471775681350884e-01 6.758891491599852142e-01
3.960402115472944629e-01 -6.430551151295930135e-01 6.554634007656262584e-01
5.219085499882289980e-01 8.527239247001162648e-01 2.175715269088998247e-02
2.729269102893786547e-01 -6.173049297856735285e-01 -7.378655197949001154e-01
4.645889030901245165e-01 8.838707951747031277e-01 -5.412548903015140106e-02
4.229110082078035293e-01 -8.687327314300959946e-01 2.577784329199473423e-01
4.074331211460199276e-01 -7.392632711701061510e-01 5.361791376882233395e-01
5.198239092899560321e-01 8.541400103480478734e-01 1.509788240595826697e-02
5.204564467465719879e-01 8.538193720510793838e-01 1.084282943853824045e-02
-2.445392079679212793e-01 -3.465302083462099558e-01 -9.056033295378026482e-01
3.505352786567625389e-01 -7.617632554907077802e-01 -5.448318648915685403e-01
3.215056856014461562e-01 9.413873778126273795e-01 -1.020974976236429660e-01
9.947167977704706177e-01 1.000423086658992489e-01 -2.302235240060507976e-02
5.061778620522889849e-01 8.624074903352152432e-01 -6.106765255783781418e-03
5.226972600806267799e-01 8.524604007029887853e-01 9.941807557252659369e-03
5.164784766647656511e-01 8.562986394269405110e-01 1.619647373284276203e-03
5.571689354026284624e-01 -6.114505377765951932e-01 -5.618638778877086404e-01
6.349822105602205280e-01 7.695694059950221044e-01 6.753163427997761759e-02
6.028088039871470905e-01 7.890991337989690102e-01 1.180851509432999796e-01
4.052530726586930365e-01 -9.140755492606986721e-01 1.535699659568581441e-02
4.837114724520000242e-01 8.728252801665593585e-01 -6.480155646653330825e-02
5.949818265693201935e-01 7.943450239286421466e-01 1.225259524020944069e-01
4.157546408083716560e-01 -9.080848553658781297e-01 5.029884791358717189e-02
3.166384304063570299e-01 8.265352430984550525e-01 -4.653811301567526426e-01
3.366299295865934349e-01 8.953739666031725886e-01 -2.915231559170317066e-01
4.469537694475056999e-01 -8.944578924748227688e-01 1.331940562353709119e-02
4.732639957657490126e-01 8.784915477509369630e-01 -6.537423683684935594e-02
4.672311571786730289e-01 8.812155671410981661e-01 -7.179254828790215814e-02
4.755265166600887716e-01 8.779405802487197930e-01 -5.563155135050061595e-02
4.642438209941907035e-01 8.803521599515494733e-01 -9.725095957035743977e-02
4.789587426062039688e-01 8.759275853412794577e-01 -5.787389842821689251e-02
4.660791257381549091e-01 8.815274950127603981e-01 -7.536261730914618762e-02
4.831082437938143403e-01 8.744870523298838849e-01 -4.334535829644658306e-02
4.790300237502631009e-01 8.757579643586390628e-01 -5.981825982285843973e-02
4.818679600949162811e-01 8.749790952435584357e-01 -4.706221330035471190e-02
4.790473638210934193e-01 8.761114761148618424e-01 -5.424301462767935206e-02
4.745810994525949122e-01 8.747589377002608080e-01 -9.782423501299447599e-02
4.655322710054389801e-01 8.820518310165327280e-01 -7.255530340988587679e-02
4.704962316312125692e-01 8.796292310014213189e-01 -6.989786826990142254e-02
4.646693250075182857e-01 8.779414127513414101e-01 -1.153312367627954832e-01
4.674291569135058388e-01 8.807920300246251388e-01 -7.560015285850264777e-02
4.754928511466699481e-01 8.783302990628698570e-01 -4.942099004006623997e-02
4.781151095298822873e-01 8.768605786720538031e-01 -5.021421721126132637e-02
4.781023517342238849e-01 8.768793838579554967e-01 -5.000687383847040451e-02
4.808433229196601433e-01 8.757244209346327635e-01 -4.354810423292515553e-02
4.743497481202109678e-01 8.786783343966376725e-01 -5.400649146392674099e-02
4.860723111011203135e-01 8.731210374471488622e-01 -3.732776912742123698e-02
4.856385837532860572e-01 8.732505186630385996e-01 -3.985846992593564120e-02
4.842777885791238468e-01 8.736548647677897517e-01 -4.692761187710728366e-02
4.780460457518360129e-01 8.768644984405257192e-01 -5.079989680775835736e-02
4.642880472578195805e-01 8.803074656243298213e-01 -9.744421552657744900e-02
4.891939215483022130e-01 8.668339114624060704e-01 -9.637570782608557984e-02
4.520920019574737325e-01 8.798019004651840280e-01 -1.468381343654776849e-01
4.708210951455635840e-01 8.796529057998209167e-01 -6.736662143720344165e-02
5.180300007464908596e-01 8.553561647147772673e-01 3.278690442449893466e-03
5.260572450765150787e-01 8.504251948028483943e-01 6.384586677674663167e-03
5.270525984394840435e-01 8.497337107931441924e-01 1.296839311176256268e-02
5.217152871229865374e-01 8.531022528609530919e-01 5.450261071379144430e-03
5.285041670929931934e-01 8.488894037847404261e-01 8.374097403878276794e-03
5.252501242589555641e-01 8.509279617296803266e-01 5.823307696096672280e-03
5.129713433168053838e-01 8.584034569911374035e-01 -1.976350529826313013e-03
5.204074356278514113e-01 8.538679689762082026e-01 9.251621462694847517e-03
5.250717414322728649e-01 8.510191133629716465e-01 8.132345306361877732e-03
5.228705763789951444e-01 8.523773203104514362e-01 7.698323029823813529e-03
5.236215011492000304e-01 8.519223348427384934e-01 6.989916333920802131e-03
5.251830262019708817e-01 8.509651561787924257e-01 6.410301002560834550e-03
5.217886542372420777e-01 8.530308426416873813e-01 8.659203849117865295e-03
5.226596575428584801e-01 8.524935232850413547e-01 9.037429625652021112e-03
5.261277476554732102e-01 8.503526927654015966e-01 9.481089262798898798e-03
4.873982580637199469e-01 8.731504716498648122e-01 -7.154851086517620591e-03
5.250667321986195457e-01 8.509954618944906013e-01 1.056648348533473572e-02
5.086635648476953708e-01 8.609631181532858557e-01 1.971541580932802563e-03
5.186820976832354768e-01 8.549645510694030559e-01 2.120838893639190748e-03
4.955514817255947113e-01 8.682101408189382141e-01 -2.529585615722402397e-02
5.173511600075002548e-01 8.557668661511799169e-01 3.293635784738302170e-03
5.169082746397887229e-01 8.560358218748668202e-01 2.916723493554976808e-03
5.204316111102833542e-01 8.538794572342415234e-01 6.388322981173877486e-03
5.008237825504877616e-01 8.653365356660454033e-01 -1.918903002521606116e-02
5.049385903230880768e-01 8.631177061108834536e-01 -8.052664181446091834e-03
5.075707019953528132e-01 8.615856062251223690e-01 -6.498124470417045682e-03
5.230182747420689671e-01 8.522799054696305054e-01 8.417067096528476483e-03
5.098758650245950319e-01 8.602478643261280977e-01 4.628042310419615323e-04
5.260339709036682132e-01 8.504629047901149930e-01 -1.053105540015598788e-03
5.271019234894461780e-01 8.497859003859280502e-01 5.242686239281416603e-03
5.259155422923263989e-01 8.505268060519174389e-01 4.122446178245315306e-03
5.226759132804734698e-01 8.524903135333018467e-01 8.375858661384129669e-03
5.243843826637073491e-01 8.514500435880139051e-01 7.337744365374349043e-03
4.985282210461193242e-01 8.664163811904236345e-01 -2.814724188055118745e-02
4.751648124372326309e-01 8.782650327672326673e-01 -5.356242376761359558e-02
4.863680534603492256e-01 8.722294440042809294e-01 -5.159373591022285710e-02
4.750999899660491299e-01 8.776137758264771493e-01 -6.382836370966951667e-02
4.226088939342268480e-01 8.031657145592906444e-01 4.199125596170627528e-01
4.320675814333622689e-01 7.962517757548021047e-01 4.234391510968835148e-01
4.291262826657277762e-01 7.988584610930022922e-01 4.215160645403849271e-01
4.243723759421280106e-01 7.979339757699650537e-01 4.280297382766414804e-01
4.302738390288838310e-01 7.953729298537006720e-01 4.269031809477253359e-01
4.247683641535209831e-01 7.998936081385469299e-01 4.239599656493976965e-01
4.283735335308274661e-01 7.988916748460752615e-01 4.222181990771428639e-01
4.250194708039738978e-01 7.974629807625914779e-01 4.282653893916162913e-01
4.291297083719282646e-01 7.946184323736477095e-01 4.294522561643731029e-01
4.261571472590194865e-01 7.963118107899782583e-01 4.292756525083156194e-01
4.456241135855416591e-01 8.241615244144762098e-01 3.495381682533496570e-01
4.443305646242277640e-01 8.069658197052324011e-01 3.890713497138760801e-01
4.494253524510708475e-01 8.050430992704916688e-01 3.871982191219275338e-01
4.830198980230984707e-01 8.408328125120223540e-01 2.443193801499951856e-01
5.004273267505285894e-01 8.561411203494438960e-01 1.288210879014717314e-01
4.305059596728763593e-01 8.068969548432125549e-01 4.044526213920320301e-01
4.505283657716401269e-01 8.054753282092046440e-01 3.850112820183447249e-01
4.216778710948567710e-01 8.005227156399208344e-01 4.258534428337943378e-01
4.233906960281920151e-01 7.892626426130122663e-01 4.447525148802281003e-01
3.799438658317651485e-01 7.805597092518082869e-01 4.963559197889614860e-01
4.557344648597191905e-01 8.059694259320442367e-01 3.777821885713995020e-01
4.470820735838808568e-01 7.839819966282380870e-01 4.306853241552801581e-01
4.827279046241892413e-01 8.127133247234316071e-01 3.262986698013426445e-01
4.202733141545824669e-01 7.960331160566661568e-01 4.355474940240593451e-01
4.134145036114764693e-01 7.781610220722549043e-01 4.728148389498156301e-01
4.197260608942924298e-01 7.969978677591256222e-01 4.343091440363282540e-01
4.212429439835644329e-01 7.980106260974362264e-01 4.309680066775694596e-01
-1.637674277132481621e-02 -5.216843900454776889e-02 9.985040091396882866e-01
4.123990507679259343e-01 7.058383543839419350e-01 5.759507274118875753e-01
5.168324679997022830e-01 8.560200515872429250e-01 1.067104970987415614e-02
5.201914600104938780e-01 8.539297163024844872e-01 1.431378872657921263e-02
5.175949314627985576e-01 8.555540525810382269e-01 1.107926153599385517e-02
7.641082382527281114e-01 6.450512855061412143e-01 6.887619413625770126e-03
5.160488747224601935e-01 8.564762452228235068e-01 1.191638647814400806e-02
5.207316933407685200e-01 8.536429594278659438e-01 1.149788544432530334e-02
5.185814940552732066e-01 8.548468944823038873e-01 1.760741370450364870e-02
4.283100161182102350e-01 7.999894610909227266e-01 4.201992292190376843e-01
4.270537948779704607e-01 7.997316567798616882e-01 4.219648485649743486e-01
4.277785110733047791e-01 7.979566807634708159e-01 4.245829495974265400e-01
4.294347813288454940e-01 8.018836914484880340e-01 4.154134253656141529e-01
4.300559832749807354e-01 7.968836928291096466e-01 4.242973383753790850e-01
4.260367945257944045e-01 7.986658544808813431e-01 4.250005912896001048e-01
4.271374507358718930e-01 7.995626022313520043e-01 4.222004776073675636e-01
5.124586444046979050e-01 8.560943755974419478e-01 6.699670025699296094e-02
4.353919768018358338e-01 8.050273274454974315e-01 4.029451930505555390e-01
8.217567582215354882e-01 5.220952039843672621e-01 2.283252686273573306e-01
4.793869211358890436e-01 8.430236353821550788e-01 2.439248450463960272e-01
5.188495661636723932e-01 8.548178109179589423e-01 9.035365471160766715e-03
4.350061451410117130e-01 7.956659266016757881e-01 4.215274450550684504e-01
9.929157162162992600e-01 1.097837854907884603e-01 4.545218293972177331e-02
5.193012535910516148e-01 8.541004653944777036e-01 2.895864347131733504e-02
4.348125460637661255e-01 8.116724452449781690e-01 3.900331927100350593e-01
5.045883159450424982e-01 8.575210435201169323e-01 1.002411658547315704e-01
7.637327663973944025e-01 6.250629886527788726e-01 1.612715776181248006e-01
5.208888241745491809e-01 8.535365562850429910e-01 1.225479233301251906e-02
4.238840836468434903e-01 7.991639349965279360e-01 4.262150732103935358e-01
5.132494922297645701e-01 8.555549392478143389e-01 6.782849441464500195e-02
5.134218231345836214e-01 8.580848850229869651e-01 9.400086395754528312e-03
9.815377829627353057e-01 1.912581117314300638e-01 1.978715119957521161e-03
5.193539227194233776e-01 8.544847637099297621e-01 1.128235540711883776e-02
9.867481734047042208e-01 1.622522425571885085e-01 1.500689056015574487e-03
5.115600198734919779e-01 8.592424238367469824e-01 2.967009636768933208e-03
9.998755731729394025e-01 1.577389738184899540e-02 1.494438787766030256e-04
7.333724131099806920e-01 6.797669745134869990e-01 9.042347594742332698e-03
4.169997532547904950e-01 7.884113487188396663e-01 4.522374940192199211e-01
4.171368275918116431e-01 7.858221484443660421e-01 4.565965594273788675e-01
3.326740089818605028e-01 6.445767152053366589e-01 6.883668077144884379e-01
4.220915130163758189e-01 7.941929623386313475e-01 4.371456201442899814e-01
4.229502392991481563e-01 7.927229212057278485e-01 4.389800283291379612e-01
4.158364581241122404e-01 7.870319914200306632e-01 4.556980190611041315e-01
-7.027249108870287087e-02 -1.460110542958590329e-01 9.867839424208321164e-01
4.866215034262213468e-01 8.351790881411411682e-01 2.562721271128327039e-01
4.871573654375481732e-01 8.447387570072945051e-01 2.215719605674831005e-01
4.572858196818191390e-01 8.125600275058562083e-01 3.614358598944063528e-01
5.171832700684937389e-01 8.533892432510531423e-01 6.517871327860225161e-02
4.956975958272095140e-01 8.477652857887080229e-01 1.886210849897608788e-01
5.096156328231277177e-01 8.561944283730593686e-01 8.498827922256754763e-02
4.426613684661317993e-01 7.925609341499132432e-01 4.194020487874472458e-01
6.312380570743234554e-01 -6.444717304859991502e-01 -4.315028434499760812e-01
6.005914026153780227e-01 -6.184665631485432025e-01 -5.067436012143833324e-01
6.284985040045135696e-01 -7.009540119170573069e-01 -3.371247597573787114e-01
5.955373160914360087e-01 -8.022950837552539349e-01 -4.071736392203158944e-02
3.845412904242045404e-01 -8.367069439216009430e-01 3.899352330224373220e-01
6.357764410690956991e-01 -6.691222714966480467e-01 -3.847904660574125724e-01
6.004954366722816683e-01 -6.804543134314269270e-01 -4.199847114697524142e-01
6.073493248180185100e-01 -6.941004379632915722e-01 -3.864600621827098403e-01
6.004502342624125077e-01 -6.867397528049323796e-01 -4.096926019488688619e-01
5.966213930381194519e-01 -6.815453357652192512e-01 -4.237202717193602752e-01
5.593896890876600692e-01 -6.040065347098551030e-01 -5.676788544328594810e-01
6.146617094668177517e-01 -7.031619348780815404e-01 -3.574273020543367041e-01
5.950920845336805654e-01 -6.792064191806284068e-01 -4.295859065067048066e-01
6.206952260801810173e-01 -7.077180794075769166e-01 -3.374500798650427735e-01
6.393174135927309765e-01 -6.796755565484955408e-01 -3.596030902364352744e-01
6.152626998151865534e-01 -7.131352980814629205e-01 -3.359908582780052888e-01
6.229644141327767004e-01 -7.066188677585972799e-01 -3.355668554129926373e-01
6.385729563733133496e-01 -6.826420002670741116e-01 -3.552808450508053162e-01
5.633666382032166409e-01 -6.083446831562553392e-01 -5.590480993931747911e-01
5.989590123809961364e-01 -6.697157514877544182e-01 -4.390090132295397241e-01
5.619732977520552897e-01 -6.066821628760519225e-01 -5.622479576323201611e-01
6.009413401615114614e-01 -6.808766146290181620e-01 -4.186604129079005698e-01
5.601906340099287451e-01 -6.045583654699903109e-01 -5.662999525938596790e-01
6.082770737852998266e-01 -6.917970695280225568e-01 -3.891218525084823021e-01
5.580979325402865010e-01 -6.052942814424011608e-01 -5.675786558243580693e-01
5.554267895848324921e-01 -5.994985552940207407e-01 -5.762834056363833612e-01
5.571834269573916476e-01 -6.066002384777053891e-01 -5.670826918561419072e-01
5.965128616021790897e-01 -6.500658193516370975e-01 -4.707301099928326016e-01
5.565412129600341151e-01 -6.114885150509518086e-01 -5.624443743498159787e-01
5.752534053423472571e-01 -5.968711901714671697e-01 -5.593105595153103904e-01
5.433481515165738962e-01 -5.748570715485764593e-01 -6.118105372859454771e-01
5.751968047191997613e-01 -6.175786926057851289e-01 -5.364188608542319603e-01
5.678533197262554122e-01 -6.075068745384474278e-01 -5.554079623703628288e-01
5.876989908963934361e-01 -6.376842167035676745e-01 -4.979645929848007802e-01
5.836292195479778622e-01 -5.971341907337742727e-01 -5.502796492207746581e-01
5.556553948851608027e-01 -6.000800178275694785e-01 -5.754572567437827857e-01
5.585830051770918070e-01 -6.038786159106348528e-01 -5.686085152133979470e-01
5.565422112088266315e-01 -6.032409936867159095e-01 -5.712802032966425303e-01
5.596429906485982375e-01 -6.023357923771415212e-01 -5.692023508729509018e-01
5.556739992260743000e-01 -5.989214837775859168e-01 -5.766450059211088996e-01
5.574096846085817569e-01 -6.020293230086175562e-01 -5.717124607198508235e-01
5.642670664944515746e-01 -5.982877817756192540e-01 -5.689063260746491935e-01
5.632623765776910707e-01 -5.823295086596547154e-01 -5.861977810229721531e-01
6.479512530304469831e-01 -6.866598733378856956e-01 -3.296322072308354723e-01
5.423005198181642950e-01 -5.591830284296240849e-01 -6.270761412469963991e-01
5.529096248538576397e-01 -5.693823007229013022e-01 -6.083541257914356626e-01
5.482902622612245702e-01 -5.699932718764134654e-01 -6.119521699652175073e-01
5.432076028339525298e-01 -5.720980599813083600e-01 -6.145155083388978978e-01
5.074845358888329105e-01 -5.475124983657224664e-01 -6.653491639485396014e-01
9.904155375173622211e-01 -9.573179226167084777e-02 -9.956147344511707964e-02
5.571437310085461947e-01 -5.261462169725872329e-01 -6.424648016532203965e-01
9.901729780578255591e-01 -9.304290366592297967e-02 -1.044054194068035901e-01
8.509217752812777702e-01 -3.489039934563616940e-01 -3.926807045200487178e-01
9.848758573541451788e-01 1.437594732748710691e-01 -9.670966572514447246e-02
6.228530779863473699e-01 -4.389462803998862572e-01 -6.475957119731705625e-01
5.609977082073327459e-01 -6.131278795865993114e-01 -5.561976039680149864e-01
5.796079506324907094e-01 8.143346822316385181e-01 3.022662532107276909e-02
5.713999774425874145e-01 8.136185477412788414e-01 1.073635159166416025e-01
5.820535484894566736e-01 8.122621145329903536e-01 3.799899979245504461e-02
5.639468217931875582e-01 8.190220963141683352e-01 1.056730237028731256e-01
5.687244050495677827e-01 8.156719135121808240e-01 1.059805671262067372e-01
5.659057936521161292e-01 8.184108408704799942e-01 9.977137994757026562e-02
5.688688334845635186e-01 8.144917638237219037e-01 1.139798971452170712e-01
5.661419855203914109e-01 8.169525235700889620e-01 1.098718638391653346e-01
5.707141175822620927e-01 8.133064879502520661e-01 1.132163974445679205e-01
5.887066015438142674e-01 6.431998022340342791e-01 4.896106123286462775e-01
5.769851454706713678e-01 7.910396602193947579e-01 2.033332187965674331e-01
5.682976244134843036e-01 8.121217459221873325e-01 1.322727480862497529e-01
5.686562921660021086e-01 8.156822972673706262e-01 1.062657579121289442e-01
5.052414090761555565e-01 3.821488965540382754e-01 7.737527637542057635e-01
5.658411817072891425e-01 8.155752697089124759e-01 1.210815284150861815e-01
4.224670040328968867e-01 -8.150883166205233898e-01 3.964248561987375741e-01
4.204491870443702872e-01 -8.206440441696036814e-01 3.869959093875358080e-01
4.177864769899610198e-01 -8.247086726563456205e-01 3.811955730195792924e-01
4.241769751209567563e-01 -8.101988354410012416e-01 4.045389237481119005e-01
4.270401192424269632e-01 -8.077831420738244006e-01 4.063534569051349687e-01
4.202187149640147501e-01 -8.196352903442731819e-01 3.893767101615749349e-01
4.196669532474872621e-01 -8.231140586760986588e-01 3.825740382745949630e-01
3.885377606243660686e-01 -8.294791730986647016e-01 4.012514298598303664e-01
3.914077844265844153e-01 -8.280126554060468491e-01 4.014909572801106941e-01
3.897554225631466029e-01 -8.298492821066268954e-01 3.993004878155531623e-01
3.944019323946957312e-01 -8.270084483294876110e-01 4.006296820194216735e-01
3.909864039034572913e-01 -8.329816294406333643e-01 3.914987062265595230e-01
3.887650685119977134e-01 -8.273168681657324663e-01 4.054732064555014448e-01
4.034938248247596504e-01 -8.347513539984966480e-01 3.746770747269744239e-01
4.277345512754558987e-01 -8.133004217130942459e-01 3.944433770346350565e-01
3.882787358230373465e-01 -8.285095852676254147e-01 4.034990587688294661e-01
4.000783904601984409e-01 -8.246102296165558343e-01 3.999440594614550593e-01
4.202376268372894352e-01 -8.244106747561508186e-01 3.791403122041644425e-01
4.240939386784158271e-01 -8.063546002463540807e-01 4.122336592731973282e-01
3.977929301326657008e-01 -8.278507285832857887e-01 3.955046850804565528e-01
4.152598896440122256e-01 -8.320196531683204944e-01 3.678349097006842761e-01
4.201460276735862753e-01 -8.233821015434473756e-01 3.814698288043266716e-01
4.081765364124338991e-01 -8.244183183156384986e-01 3.920795219696681655e-01
4.223175977531237746e-01 -8.205456027084512272e-01 3.851658869939745822e-01
4.092151931493522299e-01 -8.247049300810797012e-01 3.903904506973752686e-01
4.168702366667551007e-01 -8.251791012754998711e-01 3.811806088976220086e-01
5.194934974322689136e-01 -7.700199104178792053e-01 3.703995730095142602e-01
4.216099649429335683e-01 -8.173185483835679888e-01 3.927281858092128708e-01
4.208548232979105741e-01 -8.223759111033637215e-01 3.828564725113012268e-01
4.153766475709098627e-01 -8.260951241294686165e-01 3.808268458791606026e-01
4.231689164444146778e-01 -8.198907462732141216e-01 3.856257672028829964e-01
4.201192826159840243e-01 -8.229895890701818262e-01 3.823452950623615898e-01
4.172682338459919871e-01 -8.238109862959608343e-01 3.836960774898836024e-01
4.169303013608662289e-01 -8.160098927006008696e-01 4.003710514284106736e-01
4.232662751684355684e-01 -8.067812749778828785e-01 4.122494810792365905e-01
3.836073061663768935e-01 -8.285633039982376324e-01 4.078336498172995817e-01
3.910407595568822225e-01 -8.265763815709948892e-01 4.047945278708418582e-01
3.869292958977710861e-01 -8.271585804147070231e-01 4.075468105903684579e-01
3.886050486123398540e-01 -8.271758797568556920e-01 4.059140058454164257e-01
3.842015559676944525e-01 -8.288309999119402027e-01 4.067288260954415868e-01
4.071870075355455976e-01 -8.230708837249925969e-01 3.959205239166153079e-01
3.867387131148929402e-01 -8.297000018800138044e-01 4.025308369038845258e-01
4.407107035482480395e-01 -8.552670462945732854e-01 2.725662402069712886e-01
4.683332761671159528e-01 -8.462626522148921637e-01 2.539753253778649356e-01
6.229997653049998974e-01 -7.085630931527511223e-01 -3.313753694101613800e-01
5.596239323667190346e-01 -8.281166378817931273e-01 -3.230926160971610284e-02
5.356223433065947503e-01 -5.454524945914812628e-01 -6.446629208312530945e-01
4.859675555773325106e-01 -5.134271512553942873e-01 -7.072680505154766983e-01
5.118827310864373370e-01 -5.205281063288780263e-01 -6.833934153451892701e-01
4.782371029513591276e-01 -5.093814807590881788e-01 -7.154158094565493675e-01
4.793293910712909112e-01 -5.069129759510585531e-01 -7.164374150389319906e-01
5.444773073562790833e-01 -5.663032269310207534e-01 -6.187447914460120213e-01
4.783790009534287235e-01 -5.047980367624228526e-01 -7.185627832886998245e-01
5.344171014748412274e-01 -5.541538800535956710e-01 -6.382098705541732198e-01
5.585550409706281361e-01 -5.662264939192501734e-01 -6.061384526576526488e-01
5.093907440945435461e-01 -5.334517204172271043e-01 -6.752409435266109039e-01
5.893738699982973284e-01 -5.928978564823346176e-01 -5.487354309153756882e-01
4.754058720164141549e-01 -5.104922916265134392e-01 -7.165102072142612855e-01
4.882309722381563133e-01 -5.230827251662242272e-01 -6.985806899564723782e-01
5.041904622732599206e-01 -5.347794796298208642e-01 -6.780876683140125705e-01
4.659803048300298900e-01 -5.108776651914026523e-01 -7.224031884751710431e-01
4.791406538528034109e-01 -5.053830045723899378e-01 -7.176435414012249936e-01
4.827345819103997515e-01 -5.186920512299022512e-01 -7.056386323173555741e-01
5.634673407371787457e-01 -5.722884514262418509e-01 -5.958107789279462052e-01
4.658097463232345747e-01 -5.147704903987321279e-01 -7.197448314819168136e-01
4.817666206762680758e-01 -5.106607218022907180e-01 -7.121281839742985564e-01