TITLE = "ANALYZED MODEL"
VARIABLES = "C" 
ZONE T="Step 0 Incr 0" 
 STRANDID=0, SOLUTIONTIME=0
 I=7553, J=1, K=1, ZONETYPE=Ordered
 DATAPACKING=POINT
 DT=(SINGLE)
1.000000008259155138e+00
1.000000004518194485e+00
9.999999358780480296e-01
4.999999802366557611e-01
0.000000000000000000e+00
9.171946419875154355e-01
0.000000000000000000e+00
0.000000000000000000e+00
0.000000000000000000e+00
0.000000000000000000e+00
0.000000000000000000e+00
1.000000040471815232e+00
8.328529445385494945e-02
5.000000288795719561e-01
4.196795043746248122e-01
9.999999630101744641e-01
1.000000015838519163e+00
0.000000000000000000e+00
0.000000000000000000e+00
0.000000000000000000e+00
0.000000000000000000e+00
0.000000000000000000e+00
0.000000000000000000e+00
0.000000000000000000e+00
0.000000000000000000e+00
0.000000000000000000e+00
0.000000000000000000e+00
0.000000000000000000e+00
0.000000000000000000e+00
0.000000000000000000e+00
0.000000000000000000e+00
0.000000000000000000e+00
9.999999621407547057e-01
1.000000005823497462e+00
1.000000006373709338e+00
1.000000085068743161e+00
4.328293404426709068e-01
4.601639381479924462e-01
8.470313812581057311e-01
0.000000000000000000e+00
0.000000000000000000e+00
0.000000000000000000e+00
0.000000000000000000e+00
0.000000000000000000e+00
0.000000000000000000e+00
0.000000000000000000e+00
0.000000000000000000e+00
0.000000000000000000e+00
0.000000000000000000e+00
0.000000000000000000e+00
9.999999882106346272e-01
9.509426383911074865e-01
1.000000000000000000e+00
9.999999952087111899e-01
0.000000000000000000e+00
9.999999962658732144e-01
1.000000066515428943e+00
0.000000000000000000e+00
0.000000000000000000e+00
3.905114025834280356e-01
8.238820971978795260e-01
1.000000078304889239e+00
9.999999741366503159e-01
1.000000061504004112e+00
4.999999874764971541e-01
9.999999909975713086e-01
0.000000000000000000e+00
0.000000000000000000e+00
0.000000000000000000e+00
6.230902135297374800e-01
9.999999789330861200e-01
1.000000013432185586e+00
8.505953032973352368e-01
0.000000000000000000e+00
9.345814182620240107e-01
8.702204166321221290e-01
7.320469620803524147e-02
0.000000000000000000e+00
0.000000000000000000e+00
0.000000000000000000e+00
0.000000000000000000e+00
9.015359137480651874e-01
8.635074125315296278e-01
4.962157986019359313e-01
0.000000000000000000e+00
0.000000000000000000e+00
0.000000000000000000e+00
0.000000000000000000e+00
9.999999223284657957e-01
0.000000000000000000e+00
0.000000000000000000e+00
0.000000000000000000e+00
0.000000000000000000e+00
7.748065114759850047e-01
1.000000030113452176e+00
0.000000000000000000e+00
0.000000000000000000e+00
0.000000000000000000e+00
1.000000079662181296e+00
0.000000000000000000e+00
0.000000000000000000e+00
5.000000166340270447e-01
0.000000000000000000e+00
0.000000000000000000e+00
0.000000000000000000e+00
1.000000005980241413e+00
9.999999479045014183e-01
1.000000040027718473e+00
0.000000000000000000e+00
0.000000000000000000e+00
0.000000000000000000e+00
0.000000000000000000e+00
0.000000000000000000e+00
0.000000000000000000e+00
0.000000000000000000e+00
0.000000000000000000e+00
0.000000000000000000e+00
0.000000000000000000e+00
0.000000000000000000e+00
0.000000000000000000e+00
0.000000000000000000e+00
0.000000000000000000e+00
0.000000000000000000e+00
0.000000000000000000e+00
0.000000000000000000e+00
0.000000000000000000e+00
0.000000000000000000e+00
0.000000000000000000e+00
0.000000000000000000e+00
0.000000000000000000e+00
0.000000000000000000e+00
0.000000000000000000e+00
0.000000000000000000e+00
0.000000000000000000e+00
0.000000000000000000e+00
0.000000000000000000e+00
0.000000000000000000e+00
0.000000000000000000e+00
0.000000000000000000e+00
0.000000000000000000e+00
0.000000000000000000e+00
0.000000000000000000e+00
0.000000000000000000e+00
0.000000000000000000e+00
0.000000000000000000e+00
0.000000000000000000e+00
0.000000000000000000e+00
0.000000000000000000e+00
0.000000000000000000e+00
0.000000000000000000e+00
0.000000000000000000e+00
0.000000000000000000e+00
0.000000000000000000e+00
0.000000000000000000e+00
0.000000000000000000e+00
0.000000000000000000e+00
0.000000000000000000e+00
0.000000000000000000e+00
0.000000000000000000e+00
0.000000000000000000e+00
0.000000000000000000e+00
0.000000000000000000e+00
0.000000000000000000e+00
0.000000000000000000e+00
0.000000000000000000e+00
0.000000000000000000e+00
0.000000000000000000e+00
0.000000000000000000e+00
0.000000000000000000e+00
0.000000000000000000e+00
0.000000000000000000e+00
0.000000000000000000e+00
0.000000000000000000e+00
0.000000000000000000e+00
0.000000000000000000e+00
0.000000000000000000e+00
0.000000000000000000e+00
0.000000000000000000e+00
0.000000000000000000e+00
0.000000000000000000e+00
0.000000000000000000e+00
0.000000000000000000e+00
0.000000000000000000e+00
0.000000000000000000e+00
0.000000000000000000e+00
0.000000000000000000e+00
0.000000000000000000e+00
0.000000000000000000e+00
0.000000000000000000e+00
0.000000000000000000e+00
0.000000000000000000e+00
0.000000000000000000e+00
0.000000000000000000e+00
0.000000000000000000e+00
0.000000000000000000e+00
0.000000000000000000e+00
0.000000000000000000e+00
0.000000000000000000e+00
0.000000000000000000e+00
0.000000000000000000e+00
0.000000000000000000e+00
0.000000000000000000e+00
0.000000000000000000e+00
0.000000000000000000e+00
0.000000000000000000e+00
0.000000000000000000e+00
0.000000000000000000e+00
0.000000000000000000e+00
0.000000000000000000e+00
0.000000000000000000e+00
0.000000000000000000e+00
0.000000000000000000e+00
0.000000000000000000e+00
0.000000000000000000e+00
0.000000000000000000e+00
0.000000000000000000e+00
0.000000000000000000e+00
0.000000000000000000e+00
0.000000000000000000e+00
0.000000000000000000e+00
0.000000000000000000e+00
0.000000000000000000e+00
0.000000000000000000e+00
0.000000000000000000e+00
0.000000000000000000e+00
0.000000000000000000e+00
0.000000000000000000e+00
0.000000000000000000e+00
0.000000000000000000e+00
0.000000000000000000e+00
0.000000000000000000e+00
0.000000000000000000e+00
0.000000000000000000e+00
0.000000000000000000e+00
0.000000000000000000e+00
0.000000000000000000e+00
0.000000000000000000e+00
0.000000000000000000e+00
0.000000000000000000e+00
0.000000000000000000e+00
0.000000000000000000e+00
0.000000000000000000e+00
0.000000000000000000e+00
0.000000000000000000e+00
0.000000000000000000e+00
0.000000000000000000e+00
0.000000000000000000e+00
0.000000000000000000e+00
0.000000000000000000e+00
0.000000000000000000e+00
0.000000000000000000e+00
8.521072351258291988e-01
8.914035812782451496e-01
9.753823237362766463e-01
9.553937166350729981e-01
7.813668766894626971e-01
6.915398378903899745e-01
9.999999627040595529e-01
1.000000017421454723e+00
9.999999276800668468e-01
1.000000084641297526e+00
1.000000008073985036e+00
1.000000043142819761e+00
1.000000016600119501e+00
9.999999848062378627e-01
9.999999726488467688e-01
1.000000019039782639e+00
1.000000035260552034e+00
1.000000018062658702e+00
9.999999813107381952e-01
1.000000083742619506e+00
9.999999467033461320e-01
9.999999227934608381e-01
9.999999768967705593e-01
6.157455811597708495e-01
9.999999552746405840e-01
9.256494138640840585e-01
9.463394640854634332e-01
6.416450113471539041e-01
8.929335464274418266e-01
5.863532639484665410e-01
9.999999945859564532e-01
9.546333377342969273e-01
1.000000012614631784e+00
9.384201920769155159e-01
8.364084618169040919e-01
3.261383775290839226e-01
3.307098573383356888e-01
6.677822160191738965e-02
7.916114157975798760e-01
9.999999833302083418e-01
7.956715148439904572e-01
1.032066171308948510e-01
8.162848939917699553e-01
3.353155411602926073e-01
9.470045576055613479e-01
8.934575300135501053e-01
8.526347634726343383e-01
1.000000010268778050e+00
9.310294839246507914e-01
1.000000023913696356e+00
6.532239627903073664e-01
9.043391810033180045e-01
0.000000000000000000e+00
9.999999599130866557e-01
9.360828837778850664e-01
9.999999543466583374e-01
9.999999958919980614e-01
9.999999813312031582e-01
1.000000000000000000e+00
9.999999312914394922e-01
7.033099888519048770e-01
9.080332875938688098e-01
1.443367688543538419e-01
8.963129056796967919e-01
2.315221942914018893e-01
8.741458215734331239e-01
6.729365632611782333e-01
4.868168468531294257e-01
2.426001908852068178e-01
9.107479114669299047e-01
1.000000044334128813e+00
4.999999915422818075e-01
5.000000000000000000e-01
5.000000247509411855e-01
5.000000000000000000e-01
5.000000088867971870e-01
5.000000000000000000e-01
5.000000000000000000e-01
3.846863513691525238e-01
1.730007487479752193e-01
1.769524472641184898e-01
3.273740247802692793e-01
6.140096249110467141e-01
0.000000000000000000e+00
1.990581214480544314e-01
5.000000000000000000e-01
4.999999904736385226e-01
5.000000000000000000e-01
5.000000000000000000e-01
4.999999907326225235e-01
5.003913576412314379e-01
3.824471048143539553e-01
3.763405622602831180e-01
0.000000000000000000e+00
1.081350710788595293e-01
0.000000000000000000e+00
4.999999852132777645e-01
0.000000000000000000e+00
4.991881765902160817e-01
2.504921530198503943e-01
5.000000157672591650e-01
4.999999649058184392e-01
4.999999921371908185e-01
0.000000000000000000e+00
4.999999846670486470e-01
4.517784985900519246e-01
1.660807816092375877e-01
2.485680537546041957e-01
8.173790582219091494e-01
0.000000000000000000e+00
8.585260722860670324e-01
6.217268304057295136e-01
8.496392397019273401e-01
5.000000000000000000e-01
5.000000238982653666e-01
8.564222069270329696e-01
5.000000000000000000e-01
5.000000292984521089e-01
4.999999891886898751e-01
5.000000000000000000e-01
5.000000519544738342e-01
4.999999761638864171e-01
5.000000201282047696e-01
4.999999792550181565e-01
7.252661691207109573e-01
7.096387995642449154e-01
1.809605819162436458e-01
4.637659039882426337e-01
4.935787266461630352e-01
3.683694774288694962e-01
2.095354748404080480e-01
4.999999939088493051e-01
3.811865331774889620e-01
1.254548006720380970e-01
3.313184385977582247e-01
3.912040959848765986e-01
5.000000000000000000e-01
5.000000000000000000e-01
4.999999782811203608e-01
0.000000000000000000e+00
5.000000141727373171e-01
5.000000181114377940e-01
8.168501532039881274e-01
0.000000000000000000e+00
1.909969913051774992e-01
1.068991527785499301e-01
0.000000000000000000e+00
0.000000000000000000e+00
1.013600446780485304e-01
2.397306566798200755e-01
5.000000188971616133e-01
4.999999787381265159e-01
3.710775176200892256e-01
5.000000372092026080e-01
5.000000000000000000e-01
4.999999932257921387e-01
1.184041868988457286e-01
5.000000150182315473e-01
4.999999832952610190e-01
5.000000221378008147e-01
4.999999784960812987e-01
4.999999832047827275e-01
4.999999814856149749e-01
5.000000254281213863e-01
4.999999853394342941e-01
5.000000128404702426e-01
5.000000141653043739e-01
3.780677464094678863e-01
5.000000273630272885e-01
5.000000425995688724e-01
4.999999904466299605e-01
5.000000324354172410e-01
5.000000000000000000e-01
3.807707514591199272e-01
5.000000192197853188e-01
5.000000135875117824e-01
5.000000299184494956e-01
1.173616849617568486e-01
0.000000000000000000e+00
0.000000000000000000e+00
0.000000000000000000e+00
0.000000000000000000e+00
0.000000000000000000e+00
0.000000000000000000e+00
2.515019181373030488e-01
2.137316461009008961e-01
2.395268449860078475e-01
2.438030138524426294e-01
9.955110817107180876e-02
0.000000000000000000e+00
0.000000000000000000e+00
5.000000133907729349e-01
0.000000000000000000e+00
0.000000000000000000e+00
0.000000000000000000e+00
0.000000000000000000e+00
0.000000000000000000e+00
1.047681727325626283e-01
5.000000119808574173e-01
4.621343866008988804e-02
0.000000000000000000e+00
0.000000000000000000e+00
0.000000000000000000e+00
5.924606927232826115e-01
0.000000000000000000e+00
8.659403132434000117e-02
8.500137192907252226e-01
7.675520419751862000e-02
3.175486813107420980e-01
5.265442330310089458e-01
6.770556502274771571e-02
2.322988477347703584e-01
8.116506704126019711e-01
8.052149557287493487e-01
4.999999803104552831e-01
8.861585280467312309e-01
1.924436514590820158e-01
0.000000000000000000e+00
0.000000000000000000e+00
0.000000000000000000e+00
0.000000000000000000e+00
0.000000000000000000e+00
0.000000000000000000e+00
0.000000000000000000e+00
0.000000000000000000e+00
0.000000000000000000e+00
3.844504237593423523e-01
0.000000000000000000e+00
1.745859370971295788e-01
3.584758742823269950e-02
8.750840553329114480e-01
8.756878726434313975e-01
9.159910755937804572e-01
6.089680292297615649e-01
4.857329853557544319e-01
6.058166931917500220e-01
0.000000000000000000e+00
0.000000000000000000e+00
0.000000000000000000e+00
0.000000000000000000e+00
0.000000000000000000e+00
0.000000000000000000e+00
0.000000000000000000e+00
0.000000000000000000e+00
5.000000000000000000e-01
1.233052864512170776e-01
5.000000000000000000e-01
2.495830821225801244e-01
4.999999905200977479e-01
0.000000000000000000e+00
0.000000000000000000e+00
0.000000000000000000e+00
0.000000000000000000e+00
0.000000000000000000e+00
0.000000000000000000e+00
0.000000000000000000e+00
0.000000000000000000e+00
0.000000000000000000e+00
0.000000000000000000e+00
0.000000000000000000e+00
0.000000000000000000e+00
0.000000000000000000e+00
3.750686209370824864e-01
0.000000000000000000e+00
0.000000000000000000e+00
0.000000000000000000e+00
0.000000000000000000e+00
0.000000000000000000e+00
0.000000000000000000e+00
0.000000000000000000e+00
0.000000000000000000e+00
0.000000000000000000e+00
5.000000189825433150e-01
5.000000000000000000e-01
2.468238563447673062e-01
0.000000000000000000e+00
5.000000113556275494e-01
5.000000000000000000e-01
0.000000000000000000e+00
0.000000000000000000e+00
0.000000000000000000e+00
0.000000000000000000e+00
0.000000000000000000e+00
0.000000000000000000e+00
0.000000000000000000e+00
4.999999948234609692e-01
4.999999825875786619e-01
5.000000198482230651e-01
2.245896142000085860e-01
5.000000213946194094e-01
5.000000202954322237e-01
4.999999798938944418e-01
5.000000242954631968e-01
5.000000260751732428e-01
5.027282238331141073e-01
5.000000104323334416e-01
3.298753739475674962e-01
6.466066253108840867e-01
8.940258635206175253e-01
8.534722202635799393e-01
3.681651387544982446e-01
8.680245037043031742e-01
2.438987055841107254e-01
5.807081782248066926e-01
3.522282092872993653e-01
3.439497290982830302e-01
2.923817077372281581e-01
7.389507499744151220e-01
5.000000038066942931e-01
3.389472502054980962e-01
5.000000055682531919e-01
5.000000000000000000e-01
4.999999907093100049e-01
1.472758600385934424e-01
7.748263160798720683e-01
8.964416991166933579e-01
9.418390153490138195e-01
9.062870486017843286e-01
0.000000000000000000e+00
1.737575265907080613e-01
2.118685261335951919e-01
9.044246511841474989e-01
7.304475734097114203e-02
6.113337913839792526e-01
6.829364750368815962e-01
9.687748864720505670e-01
5.198297767353566856e-01
4.237060210499436486e-01
1.608775003064167319e-01
9.409198503323792373e-01
7.814285076010588638e-01
8.096449345538379028e-01
5.629184809163380043e-01
1.520294505029783361e-01
9.140808693617120673e-01
8.862550379923856969e-01
9.128908489819314021e-01
0.000000000000000000e+00
1.327323792278000125e-01
4.136087428887745554e-02
9.725928183244736402e-02
1.843828771247109644e-01
1.397082070423934785e-01
0.000000000000000000e+00
6.997465759823210396e-01
7.981683350232748886e-02
1.445878016349873285e-01
0.000000000000000000e+00
0.000000000000000000e+00
9.159827235674297685e-02
0.000000000000000000e+00
2.801673462521032665e-01
1.932209569575120689e-01
0.000000000000000000e+00
7.606235301802978521e-02
0.000000000000000000e+00
1.660185450569134358e-01
0.000000000000000000e+00
3.369627054152128376e-01
4.999999763468550018e-01
4.999999879463991048e-01
4.999999781676091604e-01
4.999999867957569677e-01
5.000000067539405180e-01
5.000000147902441405e-01
0.000000000000000000e+00
4.545950048826815637e-01
5.000000000000000000e-01
3.685301482170616483e-01
5.000000183516840613e-01
6.411073556940215523e-01
4.999999941553558980e-01
2.032764608816938212e-01
0.000000000000000000e+00
0.000000000000000000e+00
0.000000000000000000e+00
0.000000000000000000e+00
0.000000000000000000e+00
4.999999739178190294e-01
2.585246715638744308e-01
0.000000000000000000e+00
9.687500869297524519e-02
5.199818999820692289e-01
0.000000000000000000e+00
5.008095641643826035e-01
5.531133125675475881e-01
9.236419819584881230e-01
3.752240360907192485e-01
5.000000360161878099e-01
5.000000000000000000e-01
5.000000191282227835e-01
0.000000000000000000e+00
4.999999781507149521e-01
5.000000094420004038e-01
4.999999849689590881e-01
4.999999878998928060e-01
3.818411264348814949e-01
7.132175001813657600e-01
5.604745629543036456e-01
8.861084357341917350e-01
5.000000282196663814e-01
5.000000048627093463e-01
5.000000000000000000e-01
4.999999908845634278e-01
5.083943523202494319e-01
4.999999637938485342e-01
4.823938285556363392e-01
5.000000051521019673e-01
3.855247801918263995e-01
5.000000081174328370e-01
2.357345585860115000e-01
4.999999824774590262e-01
3.215218702153546104e-01
2.041513452574426346e-01
1.927569561969746104e-01
3.748462628538125063e-01
2.120957225247420141e-01
1.943158726245844403e-01
5.196534516314871288e-01
0.000000000000000000e+00
4.370807258259783168e-02
0.000000000000000000e+00
0.000000000000000000e+00
0.000000000000000000e+00
2.280652471567916340e-01
5.300005321851522511e-02
1.398482187757000561e-01
9.999999724886220465e-01
3.419204748080206802e-01
6.548856263091084040e-01
6.924281746275342542e-01
2.572627254836344357e-01
0.000000000000000000e+00
0.000000000000000000e+00
0.000000000000000000e+00
0.000000000000000000e+00
0.000000000000000000e+00
9.232253355040945242e-02
0.000000000000000000e+00
5.973135809596795687e-01
8.665461093484899679e-01
8.563749864112887300e-01
4.877315595153491889e-01
9.266057649767260873e-01
6.070739530021226349e-01
0.000000000000000000e+00
0.000000000000000000e+00
0.000000000000000000e+00
2.033401439035698588e-01
5.253682011232663207e-02
0.000000000000000000e+00
0.000000000000000000e+00
9.031535382478623752e-01
8.581070279668303602e-01
6.619485998074017274e-01
8.858024219354019291e-01
0.000000000000000000e+00
0.000000000000000000e+00
0.000000000000000000e+00
0.000000000000000000e+00
0.000000000000000000e+00
0.000000000000000000e+00
0.000000000000000000e+00
5.000000000000000000e-01
5.000000000000000000e-01
4.999999871883095137e-01
5.000000240432632692e-01
4.999999914661275024e-01
4.999999904196374967e-01
3.768055589381577031e-01
4.999999902788742068e-01
5.000000088118415897e-01
4.999999900924791962e-01
4.999999930291577632e-01
4.999999792917353969e-01
5.000000000000000000e-01
4.999999815744526899e-01
4.999999935363732551e-01
5.000000147503903536e-01
4.999999889430394862e-01
5.000000111596650809e-01
4.999999795187999307e-01
5.000000215026831896e-01
5.000000000000000000e-01
5.000000187839580557e-01
4.999999803904804363e-01
5.000000289411442589e-01
4.999999864111144277e-01
5.000000136831250774e-01
5.000000000000000000e-01
2.510111847139547270e-01
0.000000000000000000e+00
2.460998540135678758e-01
2.407954354398384178e-01
0.000000000000000000e+00
0.000000000000000000e+00
0.000000000000000000e+00
3.891189402775930284e-01
7.609067436892681668e-02
9.859728385108586235e-02
1.267765565359511848e-01
2.564895646563727372e-01
0.000000000000000000e+00
0.000000000000000000e+00
4.999999885085367746e-01
5.000000323634917754e-01
4.999999850446831817e-01
5.000000182557200468e-01
5.000000060440413785e-01
5.000000311369789951e-01
5.000000279152635452e-01
0.000000000000000000e+00
0.000000000000000000e+00
0.000000000000000000e+00
0.000000000000000000e+00
0.000000000000000000e+00
3.812195546550582459e-01
0.000000000000000000e+00
0.000000000000000000e+00
0.000000000000000000e+00
0.000000000000000000e+00
0.000000000000000000e+00
0.000000000000000000e+00
5.303922526199010556e-02
0.000000000000000000e+00
0.000000000000000000e+00
0.000000000000000000e+00
0.000000000000000000e+00
0.000000000000000000e+00
0.000000000000000000e+00
0.000000000000000000e+00
0.000000000000000000e+00
2.261426441669985021e-01
4.948131570486469233e-02
5.377703032077884443e-02
8.562101926362410964e-01
8.444192327866381076e-01
5.210966013355220472e-01
0.000000000000000000e+00
0.000000000000000000e+00
0.000000000000000000e+00
0.000000000000000000e+00
0.000000000000000000e+00
0.000000000000000000e+00
0.000000000000000000e+00
0.000000000000000000e+00
0.000000000000000000e+00
0.000000000000000000e+00
0.000000000000000000e+00
0.000000000000000000e+00
0.000000000000000000e+00
0.000000000000000000e+00
0.000000000000000000e+00
0.000000000000000000e+00
0.000000000000000000e+00
0.000000000000000000e+00
0.000000000000000000e+00
0.000000000000000000e+00
0.000000000000000000e+00
0.000000000000000000e+00
4.999999846216968136e-01
5.000000434181349762e-01
5.000000217786122469e-01
4.999999763776408757e-01
5.000000000000000000e-01
4.999999880146577813e-01
5.000000506175001913e-01
7.773761217896524300e-01
6.282028307546706491e-01
2.130806409111553612e-01
3.638980835895040400e-01
5.000000391260098764e-01
4.999999922798131768e-01
3.318311624921934655e-01
4.999999803451414260e-01
1.979192852662387536e-01
4.999999769239687475e-01
1.222380650040176264e-01
5.000000248377992618e-01
2.595695229693387729e-01
5.000000068608481119e-01
4.670134492476181176e-01
5.000000000000000000e-01
0.000000000000000000e+00
5.000000000000000000e-01
4.500334177883968390e-01
5.000000000000000000e-01
5.000000253661759375e-01
5.000000200215960477e-01
4.999999858570214895e-01
7.741843750082380016e-01
5.000000090747994674e-01
4.999999929754017636e-01
5.000000000000000000e-01
5.000000387566454485e-01
5.000000188815629798e-01
4.999999918908811236e-01
4.999999866289567829e-01
3.876637641754749897e-01
2.193081609005949062e-01
3.879043653334312558e-01
5.000000000000000000e-01
2.816055593883177166e-01
1.005234668020802552e-01
1.080223982637984331e-01
5.000000181093491314e-01
5.000000000000000000e-01
3.947317865156093064e-01
5.000000128548848233e-01
4.999999843647863207e-01
5.000000000000000000e-01
5.000000000000000000e-01
5.000000095561014657e-01
4.999999819382079935e-01
5.000000242244494464e-01
5.000000138513562842e-01
4.001892828062612040e-01
5.000000151158554562e-01
5.000000145810854502e-01
5.000000226735447084e-01
5.000000107914724934e-01
5.000000143730018998e-01
4.999999909071374260e-01
4.999999926610115275e-01
5.000000000000000000e-01
5.000000000000000000e-01
5.000000080708916217e-01
5.000000093735176288e-01
4.999999860022960596e-01
4.999999823285612432e-01
4.999999840365020320e-01
2.455950307759957318e-01
2.030786600542101028e-01
1.192447354465227261e-01
2.430932956421301971e-01
0.000000000000000000e+00
0.000000000000000000e+00
0.000000000000000000e+00
5.000000140518054970e-01
6.559591550422147477e-02
0.000000000000000000e+00
0.000000000000000000e+00
3.594588786997861551e-01
3.678385543168710137e-01
5.000000093262020329e-01
0.000000000000000000e+00
5.000000000000000000e-01
1.035538835768919225e-01
1.183184650060796067e-01
5.000000000000000000e-01
6.396407711338172319e-01
8.572718904113167948e-01
1.077916301335518356e-01
1.070108504234506819e-01
6.280583310495842231e-02
8.688556675321593703e-01
4.935861932441134026e-01
7.687041232565350324e-01
8.559323894716066583e-01
7.603136734581522616e-01
8.513482807767099037e-02
0.000000000000000000e+00
3.658523782490045173e-01
1.165068478267700242e-01
0.000000000000000000e+00
0.000000000000000000e+00
8.256448470203117118e-01
7.627078744710882319e-01
8.716119451025470255e-01
9.254592260958950378e-01
8.417696135112028299e-01
5.000000188291804371e-01
0.000000000000000000e+00
0.000000000000000000e+00
0.000000000000000000e+00
0.000000000000000000e+00
0.000000000000000000e+00
0.000000000000000000e+00
0.000000000000000000e+00
5.000000192874550775e-01
1.278636490944278781e-01
3.773555319254511820e-01
2.504641630202387725e-01
5.000000196044019907e-01
5.000000000000000000e-01
0.000000000000000000e+00
0.000000000000000000e+00
0.000000000000000000e+00
0.000000000000000000e+00
0.000000000000000000e+00
0.000000000000000000e+00
2.515411894660189440e-01
0.000000000000000000e+00
0.000000000000000000e+00
0.000000000000000000e+00
0.000000000000000000e+00
0.000000000000000000e+00
0.000000000000000000e+00
1.188506210946554537e-01
0.000000000000000000e+00
0.000000000000000000e+00
0.000000000000000000e+00
0.000000000000000000e+00
0.000000000000000000e+00
0.000000000000000000e+00
0.000000000000000000e+00
0.000000000000000000e+00
4.999999920973824952e-01
5.000000175617158593e-01
5.000000161687364608e-01
5.000000000000000000e-01
2.450793437057863511e-01
2.517487009252792340e-01
4.999999771110186786e-01
0.000000000000000000e+00
0.000000000000000000e+00
0.000000000000000000e+00
0.000000000000000000e+00
0.000000000000000000e+00
0.000000000000000000e+00
0.000000000000000000e+00
0.000000000000000000e+00
0.000000000000000000e+00
0.000000000000000000e+00
0.000000000000000000e+00
0.000000000000000000e+00
0.000000000000000000e+00
5.435550372173272166e-02
1.873758696861509421e-01
2.108503898884013794e-01
2.286619795467153826e-01
0.000000000000000000e+00
0.000000000000000000e+00
0.000000000000000000e+00
0.000000000000000000e+00
0.000000000000000000e+00
0.000000000000000000e+00
0.000000000000000000e+00
0.000000000000000000e+00
0.000000000000000000e+00
0.000000000000000000e+00
0.000000000000000000e+00
0.000000000000000000e+00
0.000000000000000000e+00
0.000000000000000000e+00
0.000000000000000000e+00
0.000000000000000000e+00
0.000000000000000000e+00
0.000000000000000000e+00
0.000000000000000000e+00
0.000000000000000000e+00
0.000000000000000000e+00
0.000000000000000000e+00
0.000000000000000000e+00
0.000000000000000000e+00
0.000000000000000000e+00
0.000000000000000000e+00
0.000000000000000000e+00
0.000000000000000000e+00
0.000000000000000000e+00
0.000000000000000000e+00
0.000000000000000000e+00
0.000000000000000000e+00
0.000000000000000000e+00
0.000000000000000000e+00
0.000000000000000000e+00
0.000000000000000000e+00
0.000000000000000000e+00
0.000000000000000000e+00
0.000000000000000000e+00
0.000000000000000000e+00
0.000000000000000000e+00
0.000000000000000000e+00
0.000000000000000000e+00
0.000000000000000000e+00
0.000000000000000000e+00
0.000000000000000000e+00
0.000000000000000000e+00
0.000000000000000000e+00
0.000000000000000000e+00
0.000000000000000000e+00
0.000000000000000000e+00
0.000000000000000000e+00
0.000000000000000000e+00
0.000000000000000000e+00
0.000000000000000000e+00
0.000000000000000000e+00
0.000000000000000000e+00
0.000000000000000000e+00
0.000000000000000000e+00
0.000000000000000000e+00
0.000000000000000000e+00
0.000000000000000000e+00
0.000000000000000000e+00
0.000000000000000000e+00
0.000000000000000000e+00
0.000000000000000000e+00
0.000000000000000000e+00
0.000000000000000000e+00
0.000000000000000000e+00
0.000000000000000000e+00
0.000000000000000000e+00
0.000000000000000000e+00
0.000000000000000000e+00
0.000000000000000000e+00
0.000000000000000000e+00
0.000000000000000000e+00
0.000000000000000000e+00
0.000000000000000000e+00
0.000000000000000000e+00
0.000000000000000000e+00
0.000000000000000000e+00
0.000000000000000000e+00
0.000000000000000000e+00
0.000000000000000000e+00
0.000000000000000000e+00
0.000000000000000000e+00
0.000000000000000000e+00
4.011334523013794229e-01
8.832518003151542674e-01
8.166187164532245912e-01
6.075752999404447907e-01
5.534749450262340664e-01
8.088643902973711164e-01
6.579701393982432256e-01
2.689354213865411403e-01
8.640716169834919969e-01
0.000000000000000000e+00
8.029409619252010355e-01
0.000000000000000000e+00
3.033739679221885907e-02
0.000000000000000000e+00
8.733733679635645730e-01
8.487207897171257232e-01
0.000000000000000000e+00
8.675979714986415958e-01
2.946411489634899183e-01
1.419928135455266749e-01
0.000000000000000000e+00
8.369773308414912849e-01
1.483056874236367007e-01
0.000000000000000000e+00
0.000000000000000000e+00
5.077090656006370828e-02
0.000000000000000000e+00
9.564401643019418420e-02
1.933372846441175907e-01
4.127018487570503491e-01
3.677187541585452690e-02
5.803755053365786121e-02
0.000000000000000000e+00
6.620067708434383691e-02
0.000000000000000000e+00
3.796911812323236490e-01
1.000000011113849618e+00
9.999999206613638947e-01
1.000000039118957407e+00
9.999999917475511646e-01
1.000000007739188623e+00
9.999999657536717823e-01
1.000000007909595645e+00
1.000000031190701355e+00
1.000000062746082330e+00
1.000000083136229234e+00
9.999999396199755752e-01
1.000000082265400492e+00
9.999999388407274648e-01
1.000000031795483357e+00
9.999999020278100836e-01
1.000000021400413441e+00
9.999999963119275970e-01
9.999999885603405581e-01
9.999999868752823540e-01
1.000000000000000000e+00
1.000000095974638903e+00
9.999999529612286775e-01
9.999999789771479852e-01
9.999999508065366971e-01
1.000000044603224003e+00
1.000000012203387634e+00
9.999999541880455478e-01
1.000000004933234710e+00
9.999999838311108835e-01
9.999999653031771407e-01
9.999999696903534296e-01
9.999999542487814086e-01
1.000000039069715685e+00
9.999999702918034306e-01
9.999999862730042377e-01
1.000000015386290464e+00
9.999999372244718909e-01
1.000000064148097501e+00
9.999999496895538575e-01
1.000000004273789767e+00
1.000000062413202384e+00
9.999999926423100982e-01