TITLE = "Normal Surface Vectors"
VARIABLES = "XV", "YV", "ZV" 
ZONE T="Step 0 Incr 0" 
F = VECTORS
9.963424582377440331e-01 -6.183343017122300278e-02 -5.897739249941257034e-02
9.687644595125647351e-01 2.802765402733626773e-02 2.463937348940764827e-01
9.965218336421404199e-01 -6.189858108012452620e-02 -5.579247919543680462e-02
9.998005614416397568e-01 -6.607967331582968729e-03 -1.884601041936352986e-02
9.896334502644861253e-01 -1.045018655049440026e-01 -9.851392908414248473e-02
9.964824216078366215e-01 -6.429996289265217657e-02 -5.374288974911387018e-02
9.996461673725113295e-01 -9.602325903160437159e-03 -2.480595482335934757e-02
9.749660366836523373e-01 -8.926830376980120912e-03 2.221745687804789759e-01
9.992520158448772172e-01 2.880864169462994673e-02 2.579672447539758939e-02
9.974184650869376556e-01 5.988420697146634025e-02 3.962685022829755266e-02
9.998996996490164824e-01 5.116032627105446089e-03 1.320669723908956227e-02
9.807970938772844205e-01 1.822731345937815550e-01 6.937986053049161050e-02
9.795502487932378211e-01 1.091671980079621379e-01 -1.690083813548793890e-01
9.874149531313178851e-01 -1.581197580120086710e-01 -3.138862676401611446e-03
9.922333303216281930e-01 -1.202055075492167169e-01 -3.199459569498683958e-02
9.712543306703550483e-01 1.912503555358776586e-01 1.417332941177939509e-01
9.714515221367751030e-01 1.919234436042496772e-01 1.394536909989444184e-01
9.998498765930958765e-01 -1.228839990157602757e-02 -1.221554356669596157e-02
9.999950158438737358e-01 2.386388700765853469e-03 2.067229155093833030e-03
9.999731258260576849e-01 -5.333390950882873661e-03 -5.030165666105825516e-03
9.996237137986402344e-01 2.026002846720120071e-02 1.849221614415570702e-02
9.992094965001441231e-01 -3.782853346732756306e-02 -1.222228127804720656e-02
9.945123103077108118e-01 1.005850724491210713e-01 -2.877338782320491839e-02
9.979558889086178608e-01 -5.842008745091814559e-02 -2.590631534659875584e-02
9.978562131567423332e-01 -5.817229875729312133e-02 -2.998268703399149110e-02
9.979975222374514177e-01 -5.719754985496795785e-02 -2.700714532296893261e-02
9.999911430571638560e-01 3.446717000229932142e-03 2.415356939873654178e-03
9.996261611555220528e-01 2.040248780525173722e-02 1.820100065465521388e-02
9.997960845293837329e-01 1.513564246577434394e-02 1.336793502608741614e-02
9.944662143918667763e-01 -8.373239840545823598e-02 -6.344945933874684973e-02
9.949020152559637786e-01 -8.504082037609834999e-02 -5.420367985093160756e-02
9.967975835781313076e-01 -6.051805265002161566e-02 -5.226990220238994511e-02
9.969921287299019497e-01 -6.028217138531025143e-02 -4.871093371811657802e-02
9.968127677474714066e-01 -5.840356496454270074e-02 -5.434454577101694578e-02
9.967666770005233490e-01 -6.303971188106610724e-02 -4.982154501103386313e-02
9.966427243335458375e-01 -6.740945695621815281e-02 -4.646767850748974998e-02
9.926495284381054995e-01 -8.834444124279680621e-02 -8.271743101127475295e-02
9.956510358668582139e-01 -6.788706521255850890e-02 -6.379938208225917340e-02
9.939112661205027344e-01 -8.092479202037768105e-02 -7.477682204532234977e-02
9.999341459199170279e-01 -8.534342607282752180e-03 -7.672601883815794235e-03
9.994182400478828221e-01 -1.253218702353768935e-02 -3.171948530477036038e-02
9.999753924303329544e-01 -4.491925850816655755e-03 -5.388611690617181246e-03
9.938314917898252165e-01 1.093955805024974526e-01 -1.820914312459452969e-02
9.929711627229066417e-01 1.166190475895197837e-01 -2.020563634316084253e-02
9.999986414324394390e-01 1.144528525979657957e-03 1.186249437802837500e-03
9.994172298608205995e-01 -2.403554214911291648e-02 -2.423826253925264254e-02
9.976194137915829208e-01 -4.848570157003959102e-02 -4.903714887102907094e-02
9.998111092254160504e-01 1.451405361840745097e-02 -1.292625688299009132e-02
9.997273938407438276e-01 1.933341653200406490e-02 -1.309034031622064234e-02
9.986650079716403727e-01 4.406377097899169537e-02 -2.695525811626600654e-02
9.804344438642089710e-01 1.874797437989016158e-01 5.999705784267482522e-02
9.704683154314304172e-01 1.496722902638931152e-01 1.891810092764136808e-01
9.688835686193932872e-01 2.125905058923900082e-01 1.267671379489458128e-01
9.875086179516097129e-01 1.487779770210646557e-01 5.188297432512112978e-02
9.923161616681980268e-01 1.228459006955004706e-01 -1.474855838398707146e-02
8.900536350206402769e-01 3.980044912103801180e-01 -2.222542502696208677e-01
9.497700729919241747e-01 3.089373984321011624e-01 -4.994489262096947491e-02
9.619171380749143019e-01 1.352920704236394156e-01 -2.375110000784204645e-01
9.839827321990463060e-01 -1.782063198802270043e-01 -4.526620024490917403e-03
9.682996381907438277e-01 2.481580157963013678e-01 2.852034143760006843e-02
9.614837311675290543e-01 1.640293607556128352e-01 2.205524960418075719e-01
9.660120993633161124e-01 1.884681774244791330e-01 1.769191057573314407e-01
9.967681013738661777e-01 -5.958296964486944902e-02 -5.388155353956063098e-02
9.866156268823543796e-01 -1.552488700493301343e-01 -4.987377206453420808e-02
9.681417366020099724e-01 1.614942977950982739e-01 -1.913665844104255054e-01
9.736491408814135218e-01 1.647417012841166095e-01 -1.576943953312865965e-01
9.937391600099541034e-01 1.135394351371074410e-02 -1.111466141157636256e-01
9.778616258164513075e-01 -5.205575122461464192e-03 2.091878169092333262e-01
9.953549841145969967e-01 -8.274941739309248090e-02 -4.920355189754255926e-02
9.642138344258693872e-01 2.647744152799704209e-01 1.364516452491058504e-02
9.525343946581108501e-01 6.680827793567484241e-02 -2.970099004958857702e-01
9.708933480922171677e-01 1.976670742694395244e-01 1.352547018777711940e-01
9.731024498747009588e-01 1.822841410680582919e-01 -1.408691377234038977e-01
9.992927913098306192e-01 -2.611687460600446709e-02 -2.705228450651601252e-02
9.703684097680898013e-01 2.075816909429909762e-01 -1.236729190623285374e-01
9.640792734499906702e-01 2.244704546241272913e-01 -1.420005968472516089e-01
9.752757086935035513e-01 2.176646337685179677e-01 3.820208422064660242e-02
9.995872343449174746e-01 2.166494985235485615e-02 1.886772065126185796e-02
9.997613644925890108e-01 1.608205290206577223e-02 1.478450683559463623e-02
9.887856883506263017e-01 -1.093032025323735085e-01 -1.017628243964618373e-01
9.999119656645338861e-01 -9.259891450845776639e-03 -9.503437862515475704e-03
9.638084001746021201e-01 2.518587759319126373e-01 -8.741009517757471203e-02
9.987570826067734275e-01 4.933217846818035990e-02 -7.115202765238081394e-03
9.995287644427059970e-01 2.954326216479565351e-02 -8.333349404637287530e-03
9.993436274316691570e-01 -2.505189965951649944e-02 -2.616709068969757732e-02
9.947876302456276632e-01 4.829818255536519507e-03 -1.018540306807085571e-01
9.984338897435002247e-01 4.164330878006031883e-02 3.735776553157880986e-02
9.953781074501593107e-01 -8.309122863583949525e-02 -4.814842606696425470e-02
9.944253071447464176e-01 -1.030252205040998043e-01 -2.245244864504518378e-02
9.994660484555759616e-01 -2.275171683969953035e-02 -2.345159622376129932e-02
9.994328460826077398e-01 -2.355126203388630685e-02 -2.406915511250507303e-02
9.965344319284817898e-01 2.645771272859317319e-02 -7.886136835072776741e-02
9.946143139261393040e-01 -2.545592924129275875e-02 -1.004707031910172521e-01
9.644456298559542784e-01 2.048021797459460003e-01 1.670350089743493083e-01
9.777932764595077542e-01 1.727453241273279039e-01 1.186564852956844413e-01
9.999487482185729359e-01 -7.201967003459524425e-03 -7.115659308185018177e-03
9.993012284241687970e-01 -2.616551197223344200e-02 -2.669121303309609020e-02
9.996339521471550027e-01 -1.909897514419988535e-02 -1.916222489954228989e-02
9.692179361522993419e-01 4.355809363743686630e-02 2.423206238010904012e-01
9.732573822950597586e-01 -1.505478993563216517e-01 -1.735090712544065938e-01
9.838742199628368601e-01 -1.105171577346995976e-01 -1.406324185199230858e-01
9.888110471661771816e-01 -1.071183471460870479e-01 -1.038189419461520158e-01
9.996935793189045683e-01 1.860116432190250454e-02 1.633230401463423714e-02
9.861511607099158194e-01 -1.019073137596901990e-01 -1.308464276652974712e-01
9.916390348661460186e-01 -9.510977237037029908e-02 -8.721327725406720355e-02
9.808507190843380741e-01 1.862800612596744176e-01 5.684721320195922079e-02
9.760057460823765574e-01 1.923765203717202610e-01 1.020002844302533851e-01
9.963879433389317697e-01 -6.083943770697002040e-02 -5.924212342846538193e-02
9.991375504740279689e-01 3.122962898982745150e-02 2.736540710307120913e-02
9.987074205338826172e-01 3.846300863263678316e-02 3.322777659555671559e-02
9.992630990570924299e-01 2.861918475063899084e-02 2.557735574730623726e-02
9.985495403459140329e-01 4.163270316750850714e-02 3.413991069013042057e-02
9.994633892335964553e-01 2.445933735530568531e-02 2.178702361113134256e-02
9.986230971900543762e-01 3.979984513497803605e-02 3.417428983570832551e-02
9.996444408310681817e-01 1.968942443362547284e-02 1.798105895139382251e-02
9.994700265970399844e-01 2.435087004086806603e-02 2.160326508574929652e-02
9.995928659393533700e-01 2.110337271537666981e-02 1.920286497337904408e-02
9.994626174232494886e-01 2.441630202581275208e-02 2.187054111930944802e-02
9.993046275420864877e-01 2.883359801487129018e-02 2.364074868714161060e-02
9.985675201131414269e-01 4.048155294451919600e-02 3.498787856230937965e-02
9.989538745959892774e-01 3.451006427928008519e-02 3.000353134383258735e-02
9.986650955693719967e-01 4.050324303793427505e-02 3.205486226498275443e-02
9.987345785007478716e-01 3.815219121895539744e-02 3.276662955089645890e-02
9.992508227255454401e-01 2.868550818272610353e-02 2.597950928364960860e-02
9.994063092393320469e-01 2.557018911792755672e-02 2.309100433264256458e-02
9.994053084650944552e-01 2.558519898769267067e-02 2.311767731735762943e-02
9.995405421151618564e-01 2.237206216765272315e-02 2.044982891114488499e-02
9.991858685726430211e-01 3.004299343247048698e-02 2.692616924758408498e-02
9.997564941656134074e-01 1.628655940752149131e-02 1.488960564780250975e-02
9.997425513330544522e-01 1.676552693653573026e-02 1.528882469699111707e-02
9.996962757448176751e-01 1.829557978959667208e-02 1.651145124160822639e-02
9.994032732167166255e-01 2.563783871637940331e-02 2.314732618826062863e-02
9.985579487002193000e-01 4.167096949975537812e-02 3.384602470838501270e-02
9.999047727460027568e-01 1.062747147277130939e-02 8.803538485182541354e-03
9.976709837642357970e-01 5.490426037056417991e-02 4.047382299787550403e-02
9.989729622798959596e-01 3.426397554726454131e-02 2.964794450591884400e-02
9.995613302926324995e-01 -2.084036827634105915e-02 -2.104343208056408399e-02
9.990783467545919505e-01 -3.016173603002023779e-02 -3.054057507262535054e-02
9.990036499332126674e-01 -3.115117281848741107e-02 -3.195797008809648371e-02
9.993618283371963340e-01 -2.509925706885175398e-02 -2.541580919679774231e-02
9.988948943463163976e-01 -3.295839750725410022e-02 -3.350722433468858452e-02
9.991351090473570284e-01 -2.923997383874245640e-02 -2.956446851941475426e-02
9.997737160677672152e-01 -1.461279253556951180e-02 -1.545907352851156116e-02
9.994360119920004948e-01 -2.352270818932773386e-02 -2.396539448800516850e-02
9.991468151475469961e-01 -2.896620178855755998e-02 -2.943808646053800576e-02
9.992910711333501395e-01 -2.641706693778225062e-02 -2.682338024124268291e-02
9.992435819937637298e-01 -2.730665466602116842e-02 -2.768773113173353742e-02
9.991395793662408709e-01 -2.913835558150238564e-02 -2.951367780974020055e-02
9.993567334101520760e-01 -2.513840518592726572e-02 -2.557694220383531156e-02
9.993038399522294890e-01 -2.614610339309932432e-02 -2.661234176254079209e-02
9.990724595631507166e-01 -3.014720334970899529e-02 -3.074681565020838392e-02
9.997904716867827002e-01 1.457692247161585138e-02 1.437101442408231580e-02
9.991463936835929260e-01 -2.890052449972864423e-02 -2.951683710547667316e-02
9.998993249137233530e-01 -1.001253175363904860e-02 -1.005431474356278249e-02
9.995290468947671814e-01 -2.134323293520004605e-02 -2.204882812106109813e-02
9.999752227652445313e-01 5.594393001895708005e-03 4.272776912036839979e-03
9.995939062974786848e-01 -2.004264606538244328e-02 -2.025622945281766590e-02
9.996145041625652539e-01 -1.953744424946478320e-02 -1.972641224419576650e-02
9.994353256227600513e-01 -2.359712981152695122e-02 -2.392081440890964084e-02
9.999988427445674066e-01 -8.866223388733898486e-04 -1.236288944430563152e-03
9.999671635598610386e-01 -5.682398255424325750e-03 -5.777728975378982647e-03
9.999230075859462108e-01 -8.766487261562242242e-03 -8.782232140436677104e-03
9.992816458585017658e-01 -2.657311928255877767e-02 -2.701965177271525506e-02
9.998691443927599787e-01 -1.137911995258678033e-02 -1.149824857944304474e-02
9.990806879706202182e-01 -3.034427001477235653e-02 -3.028207723097215212e-02
9.990025592009539324e-01 -3.141504022056339912e-02 -3.173297902632216116e-02
9.990888089985120457e-01 -3.005433830971590212e-02 -3.030327511507570348e-02
9.993029944806409715e-01 -2.617416626729471979e-02 -2.661650319324516262e-02
9.991935248397810776e-01 -2.819787876104992708e-02 -2.858635254157028405e-02
9.999978388481854941e-01 1.510908581184453470e-03 1.428094610910796104e-03
9.992370015769916902e-01 2.905723485042405879e-02 2.609773519427204674e-02
9.997778271743693601e-01 1.566594471246876910e-02 1.410228587012340475e-02
9.992518122510527512e-01 2.903784838312067559e-02 2.554641020311243862e-02
9.987339528917048570e-01 1.733206263046811746e-02 4.722383874997441999e-02
9.994269763316008248e-01 1.151868622370138401e-02 3.182827121214394650e-02
9.992277409436083335e-01 1.347622247492348373e-02 3.690952663662090683e-02
9.990114257176196944e-01 1.494354174554053498e-02 4.186719295281327025e-02
9.993722955434106714e-01 1.196112666835700070e-02 3.334585954983589756e-02
9.989710403697997787e-01 1.543022760270405629e-02 4.264702309198948466e-02
9.991902258416920368e-01 1.378232001547355194e-02 3.780132586854050014e-02
9.990609430740309271e-01 1.455014246267124015e-02 4.081084878244894965e-02
9.993413768617863679e-01 1.215045791478220130e-02 3.419325758757461170e-02
9.991540570091103080e-01 1.376246315195786551e-02 3.875261243099296232e-02
9.993182509342403153e-01 1.508990797907367419e-02 3.369462905143429804e-02
9.996514962201192844e-01 9.948549707293344660e-03 2.445224864094144163e-02
9.998231629877445403e-01 7.124383196612406668e-03 1.740361793564504378e-02
9.999955081688560732e-01 1.025901533707577334e-03 2.816232972361934570e-03
9.999717672429093707e-01 -4.627382805517745584e-03 -5.920476793627158819e-03
9.990677624429740167e-01 1.505827154434264022e-02 4.045805859512142943e-02
9.998421430985990899e-01 6.749270721260908559e-03 1.643582151070581768e-02
9.987704730269220121e-01 1.676601238516671130e-02 4.665236369444662051e-02
9.992188484070964050e-01 1.253805689380630903e-02 3.747652755157275528e-02
9.962572006415358894e-01 2.259917676776717135e-02 8.343181275334830838e-02
9.999310030745127698e-01 4.554562387967721164e-03 1.082797542724471887e-02
9.999768973123565052e-01 2.268161813189761497e-03 6.407829862130376940e-03
9.998632199357995187e-01 -7.229777742276859501e-03 -1.487520532336446787e-02
9.988413656674293151e-01 1.579744646739180899e-02 4.545730872736052780e-02
9.990378962822684672e-01 1.262435926611878319e-02 4.199889695003050649e-02
9.987753788383091358e-01 1.630511182561965311e-02 4.671066210990987982e-02
9.988312841033197831e-01 1.611721392054367777e-02 4.556644941130065518e-02
9.998654386250560577e-01 1.173507701324446803e-02 -1.146266158523177869e-02
9.999663134951239929e-01 5.372319018371134007e-03 -6.205647696750547782e-03
9.996167051201382270e-01 -1.936920568680477323e-02 -1.978071575603218904e-02
9.994463609366327494e-01 -2.318567204781963112e-02 -2.386202468804708363e-02
9.995809463784018911e-01 -2.024559071899462506e-02 -2.068931351440798580e-02
9.995840664484348936e-01 -2.016902322901330605e-02 -2.061321431505203777e-02
9.996513806438687144e-01 -1.845160961094986785e-02 -1.888531915462994884e-02
9.994172170141849554e-01 -2.387122997019882828e-02 -2.440062940441291642e-02
9.995301915910194124e-01 -2.130561990674702255e-02 -2.203330793161282358e-02
9.991555801704287143e-01 1.418110618794831204e-02 3.856193513790943245e-02
9.990988696672000735e-01 1.453437968913432951e-02 3.987731732169673415e-02
9.991874981444845982e-01 1.369933001502937620e-02 3.790345510510893107e-02
9.991577594500542503e-01 1.435365039429373560e-02 3.844144184478383297e-02
9.993242226703792364e-01 1.248972941436676809e-02 3.457028555563645272e-02
9.990778705862118914e-01 1.456370061280287155e-02 4.038944329129821181e-02
9.991083133434942587e-01 1.446312764364173463e-02 3.966605786666710376e-02
9.997544222905502265e-01 -1.488006769374284471e-02 -1.642189684287013660e-02
9.993530829222302403e-01 1.294745174911805623e-02 3.355263249043417134e-02
9.995422423870486961e-01 1.188154112545029839e-02 2.782327558636359457e-02
9.999579166064959113e-01 2.751846105908950513e-03 8.751706062565122943e-03
9.995193041646720511e-01 -2.172117139682179163e-02 -2.212128647524076730e-02
9.995546754178821214e-01 1.025338523654703224e-02 2.802354262835828752e-02
9.992475194742466149e-01 1.435379565536779728e-02 3.603280969961802915e-02
9.994869950928848557e-01 -2.201857574305503967e-02 -2.325787957753091065e-02
9.991467033959722244e-01 1.503809808485158904e-02 3.846713790953835976e-02
9.999307459762192263e-01 -8.812334507403304928e-03 -7.800385373261709693e-03
9.998765937910588653e-01 5.401477259666331854e-03 1.475199078779490004e-02
9.994080269872358535e-01 -2.402434562424629952e-02 -2.462572660465746355e-02
9.989451354305852737e-01 1.552040224062012017e-02 4.321728258300044229e-02
9.997223736862882459e-01 -1.601120238277872754e-02 -1.728632260808999482e-02
9.997568946057232564e-01 -1.543471402602964587e-02 -1.574551654457326602e-02
9.996393408295892735e-01 -1.877069718521157463e-02 -1.920544696083588757e-02
9.994925262506938468e-01 -2.227932579684032202e-02 -2.276667764615905240e-02
9.996492771642419006e-01 -1.854090694996657698e-02 -1.890918915451923754e-02
9.998204256521836530e-01 -1.332021190892093872e-02 -1.347918407723057779e-02
9.995851057002500539e-01 -2.014345223819965017e-02 -2.058780692904119483e-02
9.993398247021064718e-01 -2.539418968035843729e-02 -2.598172232245273341e-02
9.989074575656916588e-01 1.456080197735557316e-02 4.440579089963573450e-02
9.989992676369833235e-01 1.353835408203835251e-02 4.262835006800431287e-02
9.991017404526808532e-01 1.313646365192177277e-02 4.028828051860065818e-02
9.990051657481644476e-01 1.455739424840733071e-02 4.215164387279518587e-02
9.990963517586487486e-01 1.379353467904174957e-02 4.020221764550269139e-02
9.988871731545070354e-01 1.425556023126318614e-02 4.495769466832726102e-02
9.999999275346291849e-01 -3.087104040973581861e-04 2.227748252506892284e-04
9.999854253624305134e-01 -3.370875314048950213e-03 -4.217376238392765708e-03
9.999987386350133178e-01 -8.401130254563137856e-04 1.347938606491468939e-03
9.998950804081619959e-01 5.737033938407979684e-03 1.330092542437379642e-02
9.995559176379611444e-01 -1.997812409290626590e-02 -2.210977323859064994e-02
9.999711888756773748e-01 -4.660716500834327647e-03 -5.991589126700309388e-03
9.998253786283665123e-01 -1.258032733162645772e-02 -1.381837960373046709e-02
9.998330884774967453e-01 6.338259101156842185e-03 1.713539194523448425e-02
9.508467637377160386e-01 9.937063447839694641e-02 2.932846891552179924e-01
9.564701736874334781e-01 6.948660564237016390e-02 2.834367980390560260e-01
9.634972099669443235e-01 1.075634140769760605e-01 2.451596180818100545e-01
9.881884043167408205e-01 9.140756056830440235e-02 1.229972985267780705e-01
9.927495299786159855e-01 -1.115001756841412367e-01 -4.490079675955270522e-02
9.543805544541501540e-01 1.108388545912107476e-01 2.772589143611030593e-01
9.682107575276526212e-01 8.439459574610594372e-02 2.354686416841536289e-01
9.686777907945800514e-01 9.269143605554586163e-02 2.303728180651797297e-01
9.692910119099724664e-01 8.574680712574325736e-02 2.304830130362806040e-01
9.695409694334744533e-01 8.180315690141357066e-02 2.308647918392087717e-01
9.672687456335928857e-01 4.293962661976625378e-02 2.500947064337242232e-01
9.680465459154263819e-01 1.009016062396872471e-01 2.295751528355439164e-01
9.695729578087403100e-01 8.021902629823238207e-02 2.312859427327443596e-01
9.668297990245394713e-01 1.075785054148286068e-01 2.316614013833126762e-01
9.552768998960121660e-01 1.174438788051398591e-01 2.713908249301511533e-01
9.693985787265412268e-01 1.039117701010877776e-01 2.224156909874401566e-01
9.659264755709762174e-01 1.094666148117391241e-01 2.345274057177340055e-01
9.561550007634667114e-01 1.175676195525429124e-01 2.682265261821868418e-01
9.668345850120511065e-01 4.587700777346011283e-02 2.512492495159511785e-01
9.671568822794724962e-01 8.045041827103177612e-02 2.411126194529571443e-01
9.669659491957264263e-01 4.480117701788573215e-02 2.509376568668399976e-01
9.682743494921541849e-01 8.471447954981002615e-02 2.350919842745610167e-01
9.671210258061380127e-01 4.343055973912574030e-02 2.505807413278794415e-01
9.678847970445909610e-01 9.304889347911793340e-02 2.335399817424478053e-01
9.678821939583569511e-01 4.261251229013145875e-02 2.477664876747473766e-01
9.676667546357896610e-01 4.000535151760366975e-02 2.490394021487191412e-01
9.683748757989314448e-01 4.247060835621616764e-02 2.458583888079824420e-01
9.646345492628644047e-01 7.507375274886826655e-02 2.526739361640459314e-01
9.694093830889701779e-01 4.326399905685138214e-02 2.416064452051540079e-01
9.608856837974630860e-01 4.905902590476812763e-02 2.725654318697753875e-01
9.670125697601765768e-01 2.888263277082990868e-02 2.530859210822384853e-01
9.647695622463667853e-01 5.419041515700338124e-02 2.574550264960181467e-01
9.652511125710012685e-01 4.790692402768927105e-02 2.568953411618229432e-01
9.644884728507735483e-01 6.623427793559494292e-02 2.556853655654409696e-01
9.580854011790750357e-01 5.356384655421828067e-02 2.814307701546637785e-01
9.677188262269843522e-01 4.026555745087698202e-02 2.487950125083656927e-01
9.674868351052665627e-01 4.251361268716993130e-02 2.493227158408957145e-01
9.679850476421348882e-01 4.138567202286579094e-02 2.475725624791038915e-01
9.668860901204002767e-01 4.261883922697944777e-02 2.516245681061964889e-01
9.675117943535933573e-01 3.999892895582706637e-02 2.496417702810907469e-01
9.675068481872867165e-01 4.152016691618898303e-02 2.494124584898564645e-01
9.647324648764031840e-01 4.387984516563866316e-02 2.595492831847914239e-01
9.622081135275664110e-01 4.009760209919577267e-02 2.693468554997748843e-01
9.536427051072536853e-01 1.284173129832136273e-01 2.721664650942337560e-01
9.645681875758888024e-01 2.446609891122658934e-02 2.626968243443969508e-01
9.629929286822288548e-01 3.131808424531996871e-02 2.677009467805944176e-01
9.646022675856111839e-01 2.964176502982182604e-02 2.620378429437509316e-01
9.665621900795624555e-01 2.814237681152303647e-02 2.548833837973711325e-01
9.729006304704576058e-01 1.036969955022728519e-02 2.309909793940538580e-01
9.664242784947060239e-01 3.178210328480651076e-02 2.549784536912498845e-01
9.658012697010783798e-01 1.303372681609709684e-02 2.589556514329590664e-01
9.661120787983845659e-01 2.395857796033570852e-02 2.570086335942479150e-01
9.654062078784925172e-01 2.358980309881373444e-02 2.596812950126135000e-01
9.869041593857783568e-01 -1.540276676232265607e-01 -4.791302321497944994e-02
9.688933993574302406e-01 -9.339111246788567647e-03 2.473021667570327597e-01
9.683609972449651604e-01 4.578983045819381981e-02 2.453166737939888042e-01
9.913678644403558504e-01 -9.035528821568214464e-02 -9.500357491394260945e-02
9.922887063710715827e-01 -7.767600969449908743e-02 -9.658965123845041079e-02
9.907474331465001560e-01 -9.274219507612650737e-02 -9.908788506211504976e-02
9.937976241364419039e-01 -6.985316445166163402e-02 -8.652639872808996768e-02
9.928543823616040598e-01 -7.492298066441931137e-02 -9.288015069818096603e-02
9.934791527361738206e-01 -7.214501153059169059e-02 -8.828516517436438282e-02
9.927839907477750137e-01 -7.443691286381909356e-02 -9.401645450784727742e-02
9.933363763542852887e-01 -7.199210161728283874e-02 -8.999989286696065405e-02
9.923568334109084121e-01 -7.675488616064030101e-02 -9.662609706048234937e-02
9.712560103214920026e-01 -4.865078137908416395e-02 -2.330125831056822916e-01
9.897331814633157920e-01 -7.415569784935661934e-02 -1.221849499201036054e-01
9.926175603798937930e-01 -7.366756721090150783e-02 -9.635075695963754572e-02
9.928642117240032983e-01 -7.482511661230170641e-02 -9.285396599838451059e-02
9.487440957148548515e-01 4.629919524089366051e-02 -3.126356111613773914e-01
9.932995520635476971e-01 -7.113202164740045630e-02 -9.108367233872996516e-02
9.982653242920100922e-01 -5.471326464133637740e-02 -2.174398740927867280e-02
9.978686556388924878e-01 -6.039463353239241800e-02 -2.471101644848726353e-02
9.974495005913204260e-01 -6.591003530541345024e-02 -2.739271830550234210e-02
9.985765714550696170e-01 -4.974685278471422528e-02 -1.923750449133733789e-02
9.988405242077763591e-01 -4.494870043395308296e-02 -1.724011396810345292e-02
9.978969885615543989e-01 -6.003835441960037045e-02 -2.443350605965767183e-02
9.976879031525887065e-01 -6.279785867033323143e-02 -2.598608953674107908e-02
9.938949890094292972e-01 -1.028188165714989249e-01 -4.001302014073445518e-02
9.943864079910675891e-01 -9.864155142950134514e-02 -3.828205760148128967e-02
9.940298023146574291e-01 -1.015961440402526339e-01 -3.978662622584578507e-02
9.948392140370182490e-01 -9.455915703298374553e-02 -3.678999912230462160e-02
9.939557655804207581e-01 -1.019473259195072118e-01 -4.072688064781638390e-02
9.940919304693218717e-01 -1.013304295708516573e-01 -3.890215699371099567e-02
9.954192924072681192e-01 -8.846517926991312453e-02 -3.625388751783263641e-02
9.986897897197285490e-01 -4.751576570807226202e-02 -1.899883993142567964e-02
9.939357175687321133e-01 -1.025836604026433285e-01 -3.960280242008965695e-02
9.956866658481979826e-01 -8.639515445645723490e-02 -3.382219298839055088e-02
9.976728234048860555e-01 -6.290512306287350530e-02 -2.630366764859247072e-02
9.987120778006790545e-01 -4.749412588773024163e-02 -1.784639070542724804e-02
9.951917486468480067e-01 -9.103928190589263836e-02 -3.612800264736765188e-02
9.968446050498753763e-01 -7.318553161934079898e-02 -3.073615695809308462e-02
9.977148027637653405e-01 -6.240359507298004482e-02 -2.590296639437993445e-02
9.965608908874477034e-01 -7.698602240147991993e-02 -3.065196744770610354e-02
9.980189502521900069e-01 -5.819326435106658008e-02 -2.391064452672784363e-02
9.966493847289971120e-01 -7.596263586019041947e-02 -3.032625714597079677e-02
9.973443869733079614e-01 -6.725789903130130476e-02 -2.793830329013999303e-02
9.953931991120172906e-01 -8.929786225700540869e-02 -3.490373845124407348e-02
9.981079263120925527e-01 -5.709337181873705425e-02 -2.282354765021698401e-02
9.978203063792887573e-01 -6.097628071605865063e-02 -2.522953362982870498e-02
9.971610182284695867e-01 -6.952799184759747564e-02 -2.890954989621914023e-02
9.981122453635600245e-01 -5.682521846928141607e-02 -2.329893133238153391e-02
9.977317341166764830e-01 -6.217957601314584581e-02 -2.578928194725551432e-02
9.974489098331982273e-01 -6.599445686021050694e-02 -2.721036450123541506e-02
9.978025139754833628e-01 -6.167035796516853047e-02 -2.422622654590111599e-02
9.986443748951652211e-01 -4.871221463263310236e-02 -1.834482585987195005e-02
9.932886671529613798e-01 -1.081008947218545097e-01 -4.113174280076242056e-02
9.944449916851911819e-01 -9.823853422596884322e-02 -3.779350348106658153e-02
9.938584199058446700e-01 -1.033994164328856519e-01 -3.942083032606601145e-02
9.940815539933767209e-01 -1.014397238005805696e-01 -3.888246964089613761e-02
9.933503321754014737e-01 -1.075570722069309343e-01 -4.106816023749617489e-02
9.965366922256617688e-01 -7.729760596883604451e-02 -3.065454549366849329e-02
9.936325820412603704e-01 -1.050573549218737635e-01 -4.070926286286099399e-02
9.978961987158362357e-01 -5.907106441048777523e-02 -2.671677259506195432e-02
9.996915183281624984e-01 -2.166004056132299002e-02 -1.215363425543718005e-02
9.662719770660728180e-01 1.100021208454471378e-01 2.328475890927939329e-01
9.952594853552995113e-01 4.481359065874254699e-02 8.631511398691997516e-02
9.642812380626267776e-01 1.903974029513752844e-02 2.641953485773385069e-01
9.734439572709526756e-01 -2.982869465275777513e-03 2.289060168331552847e-01
9.670421975801682946e-01 4.287259388953450906e-03 2.545800610932651420e-01
9.748852954983053820e-01 -5.593597030309178410e-03 2.226373110991151649e-01
9.742025176624397043e-01 -6.123805085573889515e-03 2.255924502093045181e-01
9.652264029602365403e-01 2.776265858300502876e-02 2.599369650835496870e-01
9.741266812898747851e-01 -6.834152614968533150e-03 2.258993208427373667e-01
9.661060101609381112e-01 2.039463624053094309e-02 2.573387571733606327e-01
9.605501201909522058e-01 3.284689325964159495e-02 2.761603668239467901e-01
9.701569110693689657e-01 7.797149302574389769e-03 2.423525786268716231e-01
9.554176876453224221e-01 5.603802150338365456e-02 2.898909834411055875e-01
9.758315007390574447e-01 -5.673455521658039673e-03 2.184506673549037326e-01
9.744128089877488463e-01 2.780851479120867312e-04 2.247656565164163345e-01
9.718924212954580533e-01 7.183188216046031832e-03 2.353157947004511086e-01
9.782985215218210628e-01 -6.958652535955321856e-03 2.070835095875644405e-01
9.740126751013863382e-01 -6.554780876645410412e-03 2.263986386652980798e-01
9.751758139699819861e-01 -2.026250353442665599e-03 2.214227317993530120e-01
9.603424203684134408e-01 3.757543924562251059e-02 2.762797893557111251e-01
9.789026536754847907e-01 -5.994009467633903618e-03 2.042392383397367561e-01
9.741258739308258363e-01 -4.696746988412533151e-03 2.259573462099246643e-01